Executable      : siesta
Version         : 5.2.1
Architecture    : x86_64
Compiler version: GNU-13.3.0
Compiler flags  : -march=nocona -mtune=haswell -ftree-vectorize -fPIC -fstack-protector-strong -fno-plt -O2 -ffunction-sections -pipe -isystem <prefix>/include -I<prefix>/_build_env/include -fdebug-prefix-map=<prefix>/work=/usr/local/src/conda/siesta-5.2.1 -fdebug-prefix-map=<prefix>=/usr/local/src/conda-prefix -I<prefix>/lib -fallow-argument-mismatch -O3
Parallelisations: none
NetCDF support
NetCDF-4 support
Lua support
DFT-D3 support

Runtime information:
* Directory : /home/samba/homes/convidat/SIESTA_SSN/Benzene/run
* Running in serial mode.
>> Start of run:  15-MAY-2025  11:59:55

                           *********************** 
                           *  WELCOME TO SIESTA  * 
                           *********************** 

 NOTE: Siesta V5 introduces some new defaults for basis-set generation
 NOTE: which might lead to slightly different numerical results.
 NOTE: Please see the manual for full details and compatibility measures.


reinit: Reading from file optimization.fdf

reinit: -----------------------------------------------------------------------
reinit: System Name: 
reinit: -----------------------------------------------------------------------
reinit: System Label: optimization
reinit: -----------------------------------------------------------------------

initatom: Reading input for the pseudopotentials and atomic orbitals ----------
Species number:   1 Atomic number:    6 Label: C
Species number:   2 Atomic number:    1 Label: H

Ground state valence configuration (from tables):   2s02  2p02  3d00  4f00
Ground state valence configuration (from tables):   1s01  2p00  3d00  4f00

---- Processing specs for species: C
Reading pseudopotential information in PSML from:
  C.psml
PSML file version: 1.1
Using libxc ids:  101 130
GGA--PBE XC_GGA_X_PBE--XC_GGA_C_PBE pb
PSML uuid: 297821e0-be41-11e7-6802-e1ff7dfff095

---- Processing specs for species: H
Reading pseudopotential information in PSML from:
  H.psml
PSML file version: 1.1
Using libxc ids:  101 130
GGA--PBE XC_GGA_X_PBE--XC_GGA_C_PBE pb
PSML uuid: f95fa9b0-be40-11e7-634a-9594ffff953f

---- Pseudopotential check for C 

Pseudized shells:
2s( 2.00) rc: 1.20
2p( 2.00) rc: 1.26
Valence configuration for ps generation: 2s:2p: Total charge:   4.000000

---- Pseudopotential check for H 

Pseudized shells:
1s( 1.00) rc: 1.01
2p( 0.00) rc: 0.71
Valence configuration for ps generation: 1s: Total charge:   1.000000
For C, standard SIESTA heuristics set lmxkb to 3
 (one more than the basis l, including polarization orbitals).
Use PS.lmax or PS.KBprojectors blocks to override.
For H, standard SIESTA heuristics set lmxkb to 2
 (one more than the basis l, including polarization orbitals).
Use PS.lmax or PS.KBprojectors blocks to override.
C pseudopotential only contains V_ls up to l=1 -- lmxkb reset.
H pseudopotential only contains V_ls up to l=1 -- lmxkb reset.

<basis_specs>
===============================================================================
C                    Z=   6    Mass=  12.011        Charge= 0.17977+309
Lmxo=2 Lmxkb= 1    BasisType=split      Semic=F
L=0  Nsemic=0  Cnfigmx=2
          i=1  nzeta=2  polorb=0  (2s)
            splnorm:   0.15000    
               vcte:    40.000    
               rinn:  -0.90000    
               qcoe:    0.0000    
               qyuk:    0.0000    
               qwid:   0.10000E-01
                rcs:    0.0000      0.0000    
            lambdas:    1.0000      1.0000    
L=1  Nsemic=0  Cnfigmx=2
          i=1  nzeta=2  polorb=1  (2p)  (to be polarized perturbatively)
            splnorm:   0.15000    
               vcte:    40.000    
               rinn:  -0.90000    
               qcoe:    0.0000    
               qyuk:    0.0000    
               qwid:   0.10000E-01
                rcs:    0.0000      0.0000    
            lambdas:    1.0000      1.0000    
L=2  Nsemic=0  Cnfigmx=3
          i=1  nzeta=0  polorb=0  (3d)  (perturbative polarization orbital) (from 2p)
-------------------------------------------------------------------------------
L=0  Nkbl=1  erefs: 0.17977+309
L=1  Nkbl=1  erefs: 0.17977+309
===============================================================================
</basis_specs>

Using PAO.SplitTailNorm
atom: Called for C                     (Z =   6)
NOTE: C pseudopotential has channels up to l= 1
NOTE: PAOs with higher l will be generated with V_local
Maximum radius (at nrval) set to   50.00000 8518

read_vps: Pseudopotential generation method:
read_vps: ONCVPSP-3.Hamann's oncvpsp                        
Valence charge in pseudo generation:    4.00000

read_vps: Pseudopotential includes a core correction:
read_vps: Pseudo-core for xc-correction

xc_check: Exchange-correlation functional:
xc_check: GGA Perdew, Burke & Ernzerhof 1996
Got Vlocal (oncv-fit) from psml data
Choosing vlocal chloc cutoff:  4.122282
qtot up to nchloc:    4.00001153
atom: Maximum radius for chlocal:    4.12228
atom: Maximum radius for r*vlocal+2*Zval:    4.12228
Reading KB projs from C psml data
Using scalar-relativistic projectors in PSML file

PSML: Kleinman-Bylander projectors: 
   l= 0   rc=  1.219773   Ekb= 12.963096
   l= 0   rc=  1.219773   Ekb=  0.771007
   l= 1   rc=  1.278952   Ekb= -8.399923
   l= 1   rc=  1.278952   Ekb= -1.755033

PSML: Total number of  Kleinman-Bylander projectors:   8
atom: -------------------------------------------------------------------------

atom: SANKEY-TYPE ORBITALS:
atom: Selected multiple-zeta basis: split     

SPLIT: Orbitals with angular momentum L= 0

SPLIT: Basis orbitals for state 2s

SPLIT: PAO cut-off radius determined from an
SPLIT: energy shift=  0.000735 Ry
Split based on tail norm

   izeta = 1
                 lambda =    1.000000
                     rc =    5.865727
                 energy =   -1.009782
                kinetic =    0.907850
    potential(screened) =   -1.917632
       potential(ionic) =   -5.443189

   izeta = 2
                 rmatch =    3.302919
              splitnorm =    0.150000
                 energy =   -0.812047
                kinetic =    1.580868
    potential(screened) =   -2.392915
       potential(ionic) =   -6.200698

SPLIT: Orbitals with angular momentum L= 1

SPLIT: Basis orbitals for state 2p

SPLIT: PAO cut-off radius determined from an
SPLIT: energy shift=  0.000735 Ry
Split based on tail norm

   izeta = 1
                 lambda =    1.000000
                     rc =    7.564822
                 energy =   -0.387582
                kinetic =    2.372253
    potential(screened) =   -2.759835
       potential(ionic) =   -6.120604

   izeta = 2
                 rmatch =    4.252389
              splitnorm =    0.150000
                 energy =   -0.314961
                kinetic =    3.225377
    potential(screened) =   -3.540338
       potential(ionic) =   -7.207912
*Note: V_local used for l= 2

** Using vlocal for PAOs with L= 2

POLgen: Perturbative polarization orbital with L=  2

POLgen: Polarization orbital for state 2p
*Note: V_local used for lpol= 2

** Using vlocal for PAOs with L= 2
Split based on tail norm

   izeta = 1
                     rc =    7.564822
                 energy =    0.923681
                kinetic =    1.875515
    potential(screened) =   -0.951834
       potential(ionic) =   -3.587740
atom: Total number of Sankey-type orbitals: 13

atm_pop: Valence configuration (for local Pseudopot. screening):
 2s( 2.00)                                                            
 2p( 2.00)                                                            
 3d( 0.00)                                                            
Vna: chval, zval:    4.00000   4.00000

Vna:  Cut-off radius for the neutral-atom potential:   7.564822
comcore: Pseudo-core radius Rcore=  1.671741

atom: _________________________________________________________________________

<basis_specs>
===============================================================================
H                    Z=   1    Mass=  1.0080        Charge= 0.17977+309
Lmxo=1 Lmxkb= 1    BasisType=split      Semic=F
L=0  Nsemic=0  Cnfigmx=1
          i=1  nzeta=2  polorb=1  (1s)  (to be polarized perturbatively)
            splnorm:   0.15000    
               vcte:    40.000    
               rinn:  -0.90000    
               qcoe:    0.0000    
               qyuk:    0.0000    
               qwid:   0.10000E-01
                rcs:    0.0000      0.0000    
            lambdas:    1.0000      1.0000    
L=1  Nsemic=0  Cnfigmx=2
          i=1  nzeta=0  polorb=0  (2p)  (perturbative polarization orbital) (from 1s)
-------------------------------------------------------------------------------
L=0  Nkbl=1  erefs: 0.17977+309
L=1  Nkbl=1  erefs: 0.17977+309
===============================================================================
</basis_specs>

Using PAO.SplitTailNorm
atom: Called for H                     (Z =   1)
Maximum radius (at nrval) set to   50.00000 8518

read_vps: Pseudopotential generation method:
read_vps: ONCVPSP-3.Hamann's oncvpsp                        
Valence charge in pseudo generation:    1.00000

xc_check: Exchange-correlation functional:
xc_check: GGA Perdew, Burke & Ernzerhof 1996
Got Vlocal (oncv-fit) from psml data
Choosing vlocal chloc cutoff:  1.926399
qtot up to nchloc:    0.99999831
atom: Maximum radius for chlocal:    1.92640
atom: Maximum radius for r*vlocal+2*Zval:    1.92640
Reading KB projs from H psml data
Using scalar-relativistic projectors in PSML file

PSML: Kleinman-Bylander projectors: 
   l= 0   rc=  1.022342   Ekb= -3.402247
   l= 0   rc=  1.022342   Ekb= -1.068968
   l= 1   rc=  0.714575   Ekb= -1.006642

PSML: Total number of  Kleinman-Bylander projectors:   5
atom: -------------------------------------------------------------------------

atom: SANKEY-TYPE ORBITALS:
atom: Selected multiple-zeta basis: split     

SPLIT: Orbitals with angular momentum L= 0

SPLIT: Basis orbitals for state 1s

SPLIT: PAO cut-off radius determined from an
SPLIT: energy shift=  0.000735 Ry
Split based on tail norm

   izeta = 1
                 lambda =    1.000000
                     rc =    7.238756
                 energy =   -0.476315
                kinetic =    0.887622
    potential(screened) =   -1.363936
       potential(ionic) =   -1.882865

   izeta = 2
                 rmatch =    4.044510
              splitnorm =    0.150000
                 energy =   -0.376652
                kinetic =    1.480380
    potential(screened) =   -1.857033
       potential(ionic) =   -2.405174

POLgen: Perturbative polarization orbital with L=  1

POLgen: Polarization orbital for state 1s
Split based on tail norm

   izeta = 1
                     rc =    7.238756
                 energy =    0.508786
                kinetic =    1.081322
    potential(screened) =   -0.572537
       potential(ionic) =   -1.035092
atom: Total number of Sankey-type orbitals:  5

atm_pop: Valence configuration (for local Pseudopot. screening):
 1s( 1.00)                                                            
 2p( 0.00)                                                            
Vna: chval, zval:    1.00000   1.00000

Vna:  Cut-off radius for the neutral-atom potential:   7.238756

atom: _________________________________________________________________________

prinput: Basis input 

PAO.BasisType split     

%block ChemicalSpeciesLabel
    1    6 C                       # Species index, atomic number, species label
    2    1 H                       # Species index, atomic number, species label
%endblock ChemicalSpeciesLabel

%block PAO.Basis                 # Define Basis set
# WARNING: This information might be incomplete!
C                     2                    # Species label, number of l-shells
 n=2   0   2                         # n, l, Nzeta 
   5.866      3.303   
   1.000      1.000   
 n=2   1   2 P   1                   # n, l, Nzeta, Polarization, NzetaPol
   7.565      4.252   
   1.000      1.000   
H                     1                    # Species label, number of l-shells
 n=1   0   2 P   1                   # n, l, Nzeta, Polarization, NzetaPol
   7.239      4.045   
   1.000      1.000   
%endblock PAO.Basis

prinput: ----------------------------------------------------------------------

Dumping basis to NetCDF file C.ion.nc
Dumping basis to NetCDF file H.ion.nc
coor:   Atomic-coordinates input format  =     Cartesian coordinates
coor:                                          (in Angstroms)

siesta: Atomic coordinates (Bohr) and species
siesta:      2.32436   1.34171   0.00000  1        1
siesta:      4.08559   2.36027   0.00000  2        2
siesta:      0.00000   2.68341   0.00000  1        3
siesta:      0.00000   4.71865   0.00000  2        4
siesta:     -2.32436   1.34171   0.00000  1        5
siesta:     -4.08559   2.36027   0.00000  2        6
siesta:     -2.32436  -1.34171   0.00000  1        7
siesta:     -4.08559  -2.36027   0.00000  2        8
siesta:      0.00000  -2.68341   0.00000  1        9
siesta:      0.00000  -4.71865   0.00000  2       10
siesta:      2.32436  -1.34171   0.00000  1       11
siesta:      4.08559  -2.36027   0.00000  2       12

siesta: System type = molecule  

initatomlists: Number of atoms, orbitals, and projectors:     12   108    78

coxmol: Writing XMOL coordinates into file optimization.xyz                                                                                                                                                                                                                    

siesta: ******************** Simulation parameters ****************************
siesta:
siesta: The following are some of the parameters of the simulation.
siesta: A complete list of the parameters used, including default values,
siesta: can be found in file out.fdf
siesta:
redata: Spin configuration                          = none
redata: Number of spin components                   = 1
redata: Time-Reversal Symmetry                      = T
redata: Spin spiral                                 = F
redata: Long output                                 =   F
redata: Number of Atomic Species                    =        2
redata: Charge density info will appear in .RHO file
redata: Write Mulliken charges (when)               = none
redata: Write Mulliken Pop.                         = NO
redata: Write Hirshfeld charges (when)              = none
redata: Write Voronoi charges (when)                = none
redata: Write spin charge (when)                    = none
redata: Matel table size (NRTAB)                    =     1024
redata: Mesh Cutoff                                 =   300.0000 Ry
redata: Net charge of the system                    =     0.0000 |e|
redata: Min. number of SCF Iter                     =        0
redata: Max. number of SCF Iter                     =     1000
redata: SCF convergence failure will abort job
redata: SCF mix quantity                            = Hamiltonian
redata: Mix DM or H after convergence               =   F
redata: Recompute H after scf cycle                 =   F
redata: Mix DM in first SCF step                    =   T
redata: Write Pulay info on disk                    =   F
redata: New DM Occupancy tolerance                  = 0.000000000001
redata: No kicks to SCF
redata: DM Mixing Weight for Kicks                  =     0.5000
redata: Require Harris convergence for SCF          =   F
redata: Harris energy tolerance for SCF             =     0.000100 eV
redata: Require DM convergence for SCF              =   T
redata: DM tolerance for SCF                        =     0.000100
redata: Require EDM convergence for SCF             =   F
redata: EDM tolerance for SCF                       =     0.001000 eV
redata: Require H convergence for SCF               =   T
redata: Hamiltonian tolerance for SCF               =     0.001000 eV
redata: Require (free) Energy convergence for SCF   =   F
redata: (free) Energy tolerance for SCF             =     0.000100 eV
redata: Using DFT-D3 dispersion                     =   F
redata: Using Saved Data (generic)                  =   F
redata: Use continuation files for DM               =   T
redata: Neglect nonoverlap interactions             =   F
redata: Method of Calculation                       = Diagonalization
redata: Electronic Temperature                      =   299.9863 K
redata: Fix the spin of the system                  =   F
redata: Max. number of TDED Iter                    =        1
redata: Number of TDED substeps                     =        3
redata: Dynamics option                             = CG coord. optimization
redata: Variable cell                               =   F
redata: Use continuation files for CG               =   F
redata: Max atomic displ per move                   =     0.1058 Ang
redata: Maximum number of optimization moves        =       50
redata: Force tolerance                             =     0.0050 eV/Ang
mix.SCF: Pulay mixing                            = Pulay
mix.SCF:    Variant                              = stable
mix.SCF:    History steps                        = 2
mix.SCF:    Linear mixing weight                 =     0.250000
mix.SCF:    Mixing weight                        =     0.250000
mix.SCF:    SVD condition                        = 0.1000E-07
redata: Save all siesta data in one NC              =   F
redata: ***********************************************************************

%block SCF.Mixers
  Pulay
%endblock SCF.Mixers

%block SCF.Mixer.Pulay
  # Mixing method
  method pulay
  variant stable

  # Mixing options
  weight 0.2500
  weight.linear 0.2500
  history 2
%endblock SCF.Mixer.Pulay

DM_history_depth set to one: no extrapolation allowed by default for geometry relaxation
Size of DM history Fstack: 1
Total number of electrons:    30.000000
Total ionic charge:    30.000000

siesta: k-grid: Number of k-points = 1
siesta: k-point is Gamma-only

diag: Algorithm                                     = D&C
diag: Used triangular part                          = Lower
diag: Absolute tolerance                            =  0.100E-15
diag: Orthogonalization factor                      =  0.100E-05
diag: Memory factor                                 =  1.0000


ts: **************************************************************
ts: Save H and S matrices                           =    F
ts: Save DM and EDM matrices                        =    F
ts: Only save the overlap matrix S                  =    F
ts: **************************************************************

************************ Begin: TS CHECKS AND WARNINGS ************************
************************ End: TS CHECKS AND WARNINGS **************************


                     ====================================
                        Begin CG opt. move =      0
                     ====================================

outcell: Unit cell vectors (Ang):
       14.324000    0.000000    0.000000
        0.000000   14.994000    0.000000
        0.000000    0.000000   10.000000

outcell: Cell vector modules (Ang)   :   14.324000   14.994000   10.000000
outcell: Cell angles (23,13,12) (deg):     90.0000     90.0000     90.0000
outcell: Cell volume (Ang**3)        :   2147.7406
<dSpData1D:S at geom step 0
  <sparsity:sparsity for geom step 0
    nrows_g=108 nrows=108 sparsity=.9985 nnzs=11646, refcount: 7>
  <dData1D:(new from dSpData1D) n=11646, refcount: 1>
refcount: 1>
new_DM -- step:     1
Initializing Density Matrix...

Attempting to read DM from file... Failed...
DM filled with atomic data:
<dSpData2D:DM initialized from atoms
  <sparsity:sparsity for geom step 0
    nrows_g=108 nrows=108 sparsity=.9985 nnzs=11646, refcount: 8>
  <dData2D:DM n=11646 m=1, refcount: 1>
refcount: 1>
No. of atoms with KB's overlaping orbs in proc 0. Max # of overlaps:      12     102

InitMesh: MESH = 150 x 160 x 108 = 2592000
InitMesh: Mesh cutoff (required, used) =   300.000   303.079 Ry
New grid distribution [1]: sub = 2

stepf: Fermi-Dirac step function

siesta: Program's energy decomposition (eV):
siesta: Ebs     =      -269.698573
siesta: Eions   =      1878.650660
siesta: Ena     =       558.157415
siesta: Ekin    =       789.448925
siesta: Enl     =       -48.974917
siesta: Eso     =         0.000000
siesta: Edftu   =         0.000000
siesta: DEna    =       -90.595718
siesta: DUscf   =        12.074067
siesta: DUext   =         0.000000
siesta: Ex      =      -379.327933
siesta: Ec      =       -34.400585
siesta: Exc     =      -413.728517
siesta: EbV     =         0.000000
siesta: eta*DQ  =         0.000000
siesta: Emadel  =         0.000000
siesta: Emeta   =         0.000000
siesta: Emolmec =         0.000000
siesta: Ekinion =         0.000000
siesta: Eharris =     -1070.848008
siesta: Etot    =     -1072.269406
siesta: FreeEng =     -1072.269406

        iscf     Eharris(eV)        E_KS(eV)     FreeEng(eV)     dDmax    Ef(eV) dHmax(eV)
   scf:    1    -1070.848008    -1072.269406    -1072.269406  1.967362 -9.397929  8.902454
timer: Routine,Calls,Time,% = IterSCF        1       2.621  28.89
   scf:    2    -1077.012583    -1074.881274    -1074.881274  0.110138 -7.223991  4.766637
   scf:    3    -1076.115020    -1075.792154    -1075.792154  0.131608 -4.850758  0.753658
   scf:    4    -1075.874108    -1075.837335    -1075.837335  0.009731 -4.883243  0.529773
   scf:    5    -1075.862287    -1075.851060    -1075.851060  0.008118 -4.847504  0.320569
   scf:    6    -1075.858354    -1075.855094    -1075.855094  0.007521 -4.771329  0.125151
   scf:    7    -1075.855934    -1075.855604    -1075.855604  0.005352 -4.693242  0.025540
   scf:    8    -1075.855851    -1075.855742    -1075.855742  0.000349 -4.683951  0.019844
   scf:    9    -1075.855817    -1075.855784    -1075.855784  0.000413 -4.682091  0.013019
   scf:   10    -1075.855801    -1075.855793    -1075.855793  0.000328 -4.683237  0.007719
   scf:   11    -1075.855798    -1075.855796    -1075.855796  0.000434 -4.685669  0.001958
   scf:   12    -1075.855797    -1075.855796    -1075.855796  0.000075 -4.686455  0.000673

SCF Convergence by DM+H criterion
max |DM_out - DM_in|         :     0.0000754491
max |H_out - H_in|      (eV) :     0.0006729392
SCF cycle converged after 12 iterations

Using DM_out to compute the final energy and forces
No. of atoms with KB's overlaping orbs in proc 0. Max # of overlaps:      12     102

siesta: E_KS(eV) =            -1075.8558

siesta: E_KS - E_eggbox =     -1075.8558

siesta: Atomic forces (eV/Ang):
----------------------------------------
   Tot   -0.000000   -0.000000   -0.000000
----------------------------------------
   Max    1.496858
   Res    0.855262    sqrt( Sum f_i^2 / 3N )
----------------------------------------
   Max    1.496858    constrained

Stress tensor Voigt[x,y,z,yz,xz,xy] (kbar):       -3.81       -3.79       -0.01        0.00        0.00       -0.00
(Free)E + p*V (eV/cell)    -1072.4546
Target enthalpy (eV/cell)    -1075.8558

                     ====================================
                        Begin CG opt. move =      1
                     ====================================

outcell: Unit cell vectors (Ang):
       14.324000    0.000000    0.000000
        0.000000   14.994000    0.000000
        0.000000    0.000000   10.000000

outcell: Cell vector modules (Ang)   :   14.324000   14.994000   10.000000
outcell: Cell angles (23,13,12) (deg):     90.0000     90.0000     90.0000
outcell: Cell volume (Ang**3)        :   2147.7406
<dSpData1D:S at geom step 1
  <sparsity:sparsity for geom step 1
    nrows_g=108 nrows=108 sparsity=.9995 nnzs=11658, refcount: 7>
  <dData1D:(new from dSpData1D) n=11658, refcount: 1>
refcount: 1>
new_DM -- step:     2
Re-using DM from previous geometries...
Number of DMs in history: 1
 DM extrapolation coefficients: 
1   1.00000
New DM after history re-use:
<dSpData2D:SpM extrapolated using coords
  <sparsity:sparsity for geom step 1
    nrows_g=108 nrows=108 sparsity=.9995 nnzs=11658, refcount: 9>
  <dData2D:(temp array for extrapolation) n=11658 m=1, refcount: 1>
refcount: 1>
Note: For starting DM, Qtot, Tr[D*S] =         30.00000000         29.90637294
No. of atoms with KB's overlaping orbs in proc 0. Max # of overlaps:      12     104

InitMesh: MESH = 150 x 160 x 108 = 2592000
InitMesh: Mesh cutoff (required, used) =   300.000   303.079 Ry
New grid distribution [1]: sub = 2

        iscf     Eharris(eV)        E_KS(eV)     FreeEng(eV)     dDmax    Ef(eV) dHmax(eV)
   scf:    1    -1075.410885    -1075.739538    -1075.739538  0.070658 -3.737763  1.092861
   scf:    2    -1075.007174    -1075.593753    -1075.593753  0.044149 -4.981392  1.716686
   scf:    3    -1075.963489    -1075.857534    -1075.857534  0.026703 -4.218867  0.040534
   scf:    4    -1075.857885    -1075.857721    -1075.857721  0.000510 -4.212796  0.017088
   scf:    5    -1075.857886    -1075.857811    -1075.857811  0.000435 -4.211343  0.006647
   scf:    6    -1075.857841    -1075.857828    -1075.857828  0.000225 -4.211942  0.003734
   scf:    7    -1075.857830    -1075.857829    -1075.857829  0.000090 -4.212599  0.001859
   scf:    8    -1075.857829    -1075.857829    -1075.857829  0.000042 -4.213009  0.000817

SCF Convergence by DM+H criterion
max |DM_out - DM_in|         :     0.0000424886
max |H_out - H_in|      (eV) :     0.0008169913
SCF cycle converged after 8 iterations

Using DM_out to compute the final energy and forces
No. of atoms with KB's overlaping orbs in proc 0. Max # of overlaps:      12     104

siesta: E_KS(eV) =            -1075.8578

siesta: Atomic forces (eV/Ang):
----------------------------------------
   Tot    0.000000    0.000000   -0.000000
----------------------------------------
   Max    2.162346
   Res    0.915753    sqrt( Sum f_i^2 / 3N )
----------------------------------------
   Max    2.162346    constrained

Stress tensor Voigt[x,y,z,yz,xz,xy] (kbar):       -3.41       -3.39       -0.01        0.00        0.00       -0.00
(Free)E + p*V (eV/cell)    -1072.8163
Target enthalpy (eV/cell)    -1075.8578

                     ====================================
                        Begin CG opt. move =      2
                     ====================================

outcell: Unit cell vectors (Ang):
       14.324000    0.000000    0.000000
        0.000000   14.994000    0.000000
        0.000000    0.000000   10.000000

outcell: Cell vector modules (Ang)   :   14.324000   14.994000   10.000000
outcell: Cell angles (23,13,12) (deg):     90.0000     90.0000     90.0000
outcell: Cell volume (Ang**3)        :   2147.7406
<dSpData1D:S at geom step 2
  <sparsity:sparsity for geom step 2
    nrows_g=108 nrows=108 sparsity=.9985 nnzs=11646, refcount: 7>
  <dData1D:(new from dSpData1D) n=11646, refcount: 1>
refcount: 1>
new_DM -- step:     3
Re-using DM from previous geometries...
Number of DMs in history: 1
 DM extrapolation coefficients: 
1   1.00000
New DM after history re-use:
<dSpData2D:SpM extrapolated using coords
  <sparsity:sparsity for geom step 2
    nrows_g=108 nrows=108 sparsity=.9985 nnzs=11646, refcount: 9>
  <dData2D:(temp array for extrapolation) n=11646 m=1, refcount: 1>
refcount: 1>
Note: For starting DM, Qtot, Tr[D*S] =         30.00000000         30.05073916
No. of atoms with KB's overlaping orbs in proc 0. Max # of overlaps:      12     102

InitMesh: MESH = 150 x 160 x 108 = 2592000
InitMesh: Mesh cutoff (required, used) =   300.000   303.079 Ry
New grid distribution [1]: sub = 2

        iscf     Eharris(eV)        E_KS(eV)     FreeEng(eV)     dDmax    Ef(eV) dHmax(eV)
   scf:    1    -1075.944567    -1075.961798    -1075.961798  0.031894 -4.673617  0.498404
   scf:    2    -1075.815516    -1075.933081    -1075.933081  0.019508 -4.118007  0.762814
   scf:    3    -1076.007172    -1075.986221    -1075.986221  0.012008 -4.450684  0.009046
   scf:    4    -1075.986280    -1075.986252    -1075.986252  0.000159 -4.449770  0.006749
   scf:    5    -1075.986281    -1075.986269    -1075.986269  0.000232 -4.449491  0.001812
   scf:    6    -1075.986270    -1075.986269    -1075.986269  0.000054 -4.449642  0.001052
   scf:    7    -1075.986269    -1075.986269    -1075.986269  0.000020 -4.449641  0.000861

SCF Convergence by DM+H criterion
max |DM_out - DM_in|         :     0.0000201767
max |H_out - H_in|      (eV) :     0.0008612492
SCF cycle converged after 7 iterations

Using DM_out to compute the final energy and forces
No. of atoms with KB's overlaping orbs in proc 0. Max # of overlaps:      12     102

siesta: E_KS(eV) =            -1075.9863

siesta: Atomic forces (eV/Ang):
----------------------------------------
   Tot   -0.000000    0.000000   -0.000000
----------------------------------------
   Max    0.499124
   Res    0.242503    sqrt( Sum f_i^2 / 3N )
----------------------------------------
   Max    0.499124    constrained

Stress tensor Voigt[x,y,z,yz,xz,xy] (kbar):       -3.39       -3.37       -0.01        0.00       -0.00       -0.00
(Free)E + p*V (eV/cell)    -1072.9652
Target enthalpy (eV/cell)    -1075.9863

cgvc: Finished line minimization    1.  Mean atomic displacement =    0.0301

                     ====================================
                        Begin CG opt. move =      3
                     ====================================

outcell: Unit cell vectors (Ang):
       14.324000    0.000000    0.000000
        0.000000   14.994000    0.000000
        0.000000    0.000000   10.000000

outcell: Cell vector modules (Ang)   :   14.324000   14.994000   10.000000
outcell: Cell angles (23,13,12) (deg):     90.0000     90.0000     90.0000
outcell: Cell volume (Ang**3)        :   2147.7406
<dSpData1D:S at geom step 3
  <sparsity:sparsity for geom step 3
    nrows_g=108 nrows=108 sparsity=.9985 nnzs=11646, refcount: 7>
  <dData1D:(new from dSpData1D) n=11646, refcount: 1>
refcount: 1>
new_DM -- step:     4
Re-using DM from previous geometries...
Number of DMs in history: 1
 DM extrapolation coefficients: 
1   1.00000
New DM after history re-use:
<dSpData2D:SpM extrapolated using coords
  <sparsity:sparsity for geom step 3
    nrows_g=108 nrows=108 sparsity=.9985 nnzs=11646, refcount: 9>
  <dData2D:(temp array for extrapolation) n=11646 m=1, refcount: 1>
refcount: 1>
Note: For starting DM, Qtot, Tr[D*S] =         30.00000000         29.94288985
No. of atoms with KB's overlaping orbs in proc 0. Max # of overlaps:      12     102

InitMesh: MESH = 150 x 160 x 108 = 2592000
InitMesh: Mesh cutoff (required, used) =   300.000   303.079 Ry
New grid distribution [1]: sub = 2

        iscf     Eharris(eV)        E_KS(eV)     FreeEng(eV)     dDmax    Ef(eV) dHmax(eV)
   scf:    1    -1076.482469    -1076.031610    -1076.031610  0.033540 -4.662133  0.055798
   scf:    2    -1076.031892    -1076.031866    -1076.031866  0.004267 -4.692187  0.027332
   scf:    3    -1076.031996    -1076.031945    -1076.031945  0.001380 -4.682634  0.002724
   scf:    4    -1076.031949    -1076.031947    -1076.031947  0.000055 -4.682906  0.001799
   scf:    5    -1076.031950    -1076.031949    -1076.031949  0.000109 -4.683416  0.000407
   scf:    6    -1076.031949    -1076.031949    -1076.031949  0.000018 -4.683447  0.000238

SCF Convergence by DM+H criterion
max |DM_out - DM_in|         :     0.0000181640
max |H_out - H_in|      (eV) :     0.0002384858
SCF cycle converged after 6 iterations

Using DM_out to compute the final energy and forces
No. of atoms with KB's overlaping orbs in proc 0. Max # of overlaps:      12     102

siesta: E_KS(eV) =            -1076.0319

siesta: Atomic forces (eV/Ang):
----------------------------------------
   Tot   -0.000000   -0.000000    0.000000
----------------------------------------
   Max    0.219168
   Res    0.091442    sqrt( Sum f_i^2 / 3N )
----------------------------------------
   Max    0.219168    constrained

Stress tensor Voigt[x,y,z,yz,xz,xy] (kbar):       -0.98       -0.94       -0.01        0.00       -0.00       -0.00
(Free)E + p*V (eV/cell)    -1075.1715
Target enthalpy (eV/cell)    -1076.0319

                     ====================================
                        Begin CG opt. move =      4
                     ====================================

outcell: Unit cell vectors (Ang):
       14.324000    0.000000    0.000000
        0.000000   14.994000    0.000000
        0.000000    0.000000   10.000000

outcell: Cell vector modules (Ang)   :   14.324000   14.994000   10.000000
outcell: Cell angles (23,13,12) (deg):     90.0000     90.0000     90.0000
outcell: Cell volume (Ang**3)        :   2147.7406
<dSpData1D:S at geom step 4
  <sparsity:sparsity for geom step 4
    nrows_g=108 nrows=108 sparsity=.9985 nnzs=11646, refcount: 7>
  <dData1D:(new from dSpData1D) n=11646, refcount: 1>
refcount: 1>
new_DM -- step:     5
Re-using DM from previous geometries...
Number of DMs in history: 1
 DM extrapolation coefficients: 
1   1.00000
New DM after history re-use:
<dSpData2D:SpM extrapolated using coords
  <sparsity:sparsity for geom step 4
    nrows_g=108 nrows=108 sparsity=.9985 nnzs=11646, refcount: 9>
  <dData2D:(temp array for extrapolation) n=11646 m=1, refcount: 1>
refcount: 1>
Note: For starting DM, Qtot, Tr[D*S] =         30.00000000         29.90406290
No. of atoms with KB's overlaping orbs in proc 0. Max # of overlaps:      12     102

InitMesh: MESH = 150 x 160 x 108 = 2592000
InitMesh: Mesh cutoff (required, used) =   300.000   303.079 Ry
New grid distribution [1]: sub = 2

        iscf     Eharris(eV)        E_KS(eV)     FreeEng(eV)     dDmax    Ef(eV) dHmax(eV)
   scf:    1    -1076.693626    -1076.001649    -1076.001649  0.047204 -4.999116  0.088157
   scf:    2    -1076.002310    -1076.002279    -1076.002279  0.006838 -5.040236  0.038323
   scf:    3    -1076.002630    -1076.002490    -1076.002490  0.002119 -5.028862  0.003818
   scf:    4    -1076.002500    -1076.002495    -1076.002495  0.000072 -5.029395  0.002564
   scf:    5    -1076.002502    -1076.002499    -1076.002499  0.000111 -5.030047  0.001480
   scf:    6    -1076.002500    -1076.002499    -1076.002499  0.000051 -5.030198  0.000758

SCF Convergence by DM+H criterion
max |DM_out - DM_in|         :     0.0000506541
max |H_out - H_in|      (eV) :     0.0007576221
SCF cycle converged after 6 iterations

Using DM_out to compute the final energy and forces
No. of atoms with KB's overlaping orbs in proc 0. Max # of overlaps:      12     102

siesta: E_KS(eV) =            -1076.0025

siesta: Atomic forces (eV/Ang):
----------------------------------------
   Tot   -0.000000   -0.000000   -0.000000
----------------------------------------
   Max    0.362916
   Res    0.169860    sqrt( Sum f_i^2 / 3N )
----------------------------------------
   Max    0.362916    constrained

Stress tensor Voigt[x,y,z,yz,xz,xy] (kbar):        2.70        2.75       -0.01       -0.00        0.00        0.00
(Free)E + p*V (eV/cell)    -1078.4353
Target enthalpy (eV/cell)    -1076.0025

                     ====================================
                        Begin CG opt. move =      5
                     ====================================

outcell: Unit cell vectors (Ang):
       14.324000    0.000000    0.000000
        0.000000   14.994000    0.000000
        0.000000    0.000000   10.000000

outcell: Cell vector modules (Ang)   :   14.324000   14.994000   10.000000
outcell: Cell angles (23,13,12) (deg):     90.0000     90.0000     90.0000
outcell: Cell volume (Ang**3)        :   2147.7406
<dSpData1D:S at geom step 5
  <sparsity:sparsity for geom step 5
    nrows_g=108 nrows=108 sparsity=.9985 nnzs=11646, refcount: 7>
  <dData1D:(new from dSpData1D) n=11646, refcount: 1>
refcount: 1>
new_DM -- step:     6
Re-using DM from previous geometries...
Number of DMs in history: 1
 DM extrapolation coefficients: 
1   1.00000
New DM after history re-use:
<dSpData2D:SpM extrapolated using coords
  <sparsity:sparsity for geom step 5
    nrows_g=108 nrows=108 sparsity=.9985 nnzs=11646, refcount: 9>
  <dData2D:(temp array for extrapolation) n=11646 m=1, refcount: 1>
refcount: 1>
Note: For starting DM, Qtot, Tr[D*S] =         30.00000000         30.07301590
No. of atoms with KB's overlaping orbs in proc 0. Max # of overlaps:      12     102

InitMesh: MESH = 150 x 160 x 108 = 2592000
InitMesh: Mesh cutoff (required, used) =   300.000   303.079 Ry
New grid distribution [1]: sub = 2

        iscf     Eharris(eV)        E_KS(eV)     FreeEng(eV)     dDmax    Ef(eV) dHmax(eV)
   scf:    1    -1075.544506    -1076.035665    -1076.035665  0.033892 -4.805143  0.066097
   scf:    2    -1076.036033    -1076.036014    -1076.036014  0.005139 -4.768514  0.034535
   scf:    3    -1076.036202    -1076.036129    -1076.036129  0.001687 -4.780449  0.003547
   scf:    4    -1076.036134    -1076.036131    -1076.036131  0.000071 -4.780090  0.002233
   scf:    5    -1076.036136    -1076.036134    -1076.036134  0.000133 -4.779416  0.000485
   scf:    6    -1076.036134    -1076.036134    -1076.036134  0.000019 -4.779380  0.000284

SCF Convergence by DM+H criterion
max |DM_out - DM_in|         :     0.0000193067
max |H_out - H_in|      (eV) :     0.0002837682
SCF cycle converged after 6 iterations

Using DM_out to compute the final energy and forces
No. of atoms with KB's overlaping orbs in proc 0. Max # of overlaps:      12     102

siesta: E_KS(eV) =            -1076.0361

siesta: Atomic forces (eV/Ang):
----------------------------------------
   Tot   -0.000000    0.000000    0.000000
----------------------------------------
   Max    0.104713
   Res    0.050470    sqrt( Sum f_i^2 / 3N )
----------------------------------------
   Max    0.104713    constrained

Stress tensor Voigt[x,y,z,yz,xz,xy] (kbar):        0.03        0.07       -0.01        0.00        0.00        0.00
(Free)E + p*V (eV/cell)    -1076.0803
Target enthalpy (eV/cell)    -1076.0361

cgvc: Finished line minimization    2.  Mean atomic displacement =    0.0430

                     ====================================
                        Begin CG opt. move =      6
                     ====================================

outcell: Unit cell vectors (Ang):
       14.324000    0.000000    0.000000
        0.000000   14.994000    0.000000
        0.000000    0.000000   10.000000

outcell: Cell vector modules (Ang)   :   14.324000   14.994000   10.000000
outcell: Cell angles (23,13,12) (deg):     90.0000     90.0000     90.0000
outcell: Cell volume (Ang**3)        :   2147.7406
<dSpData1D:S at geom step 6
  <sparsity:sparsity for geom step 6
    nrows_g=108 nrows=108 sparsity=.9985 nnzs=11646, refcount: 7>
  <dData1D:(new from dSpData1D) n=11646, refcount: 1>
refcount: 1>
new_DM -- step:     7
Re-using DM from previous geometries...
Number of DMs in history: 1
 DM extrapolation coefficients: 
1   1.00000
New DM after history re-use:
<dSpData2D:SpM extrapolated using coords
  <sparsity:sparsity for geom step 6
    nrows_g=108 nrows=108 sparsity=.9985 nnzs=11646, refcount: 9>
  <dData2D:(temp array for extrapolation) n=11646 m=1, refcount: 1>
refcount: 1>
Note: For starting DM, Qtot, Tr[D*S] =         30.00000000         30.06624847
No. of atoms with KB's overlaping orbs in proc 0. Max # of overlaps:      12     102

InitMesh: MESH = 150 x 160 x 108 = 2592000
InitMesh: Mesh cutoff (required, used) =   300.000   303.079 Ry
New grid distribution [1]: sub = 2

        iscf     Eharris(eV)        E_KS(eV)     FreeEng(eV)     dDmax    Ef(eV) dHmax(eV)
   scf:    1    -1075.532644    -1075.716351    -1075.716351  0.057327 -5.425813  0.782670
   scf:    2    -1075.406567    -1075.658663    -1075.658663  0.028766 -4.626342  1.179640
   scf:    3    -1075.819208    -1075.773236    -1075.773236  0.017569 -5.095948  0.014618
   scf:    4    -1075.773367    -1075.773306    -1075.773306  0.000287 -5.094155  0.010368
   scf:    5    -1075.773363    -1075.773338    -1075.773338  0.000319 -5.093983  0.003906
   scf:    6    -1075.773343    -1075.773341    -1075.773341  0.000111 -5.094386  0.001263
   scf:    7    -1075.773342    -1075.773341    -1075.773341  0.000036 -5.094493  0.001024
   scf:    8    -1075.773341    -1075.773341    -1075.773341  0.000016 -5.094455  0.000785

SCF Convergence by DM+H criterion
max |DM_out - DM_in|         :     0.0000164130
max |H_out - H_in|      (eV) :     0.0007850183
SCF cycle converged after 8 iterations

Using DM_out to compute the final energy and forces
No. of atoms with KB's overlaping orbs in proc 0. Max # of overlaps:      12     102

siesta: E_KS(eV) =            -1075.7733

siesta: Atomic forces (eV/Ang):
----------------------------------------
   Tot   -0.000000   -0.000000   -0.000000
----------------------------------------
   Max    2.658271
   Res    1.227287    sqrt( Sum f_i^2 / 3N )
----------------------------------------
   Max    2.658271    constrained

Stress tensor Voigt[x,y,z,yz,xz,xy] (kbar):       -0.36       -0.96       -0.01        0.00       -0.00       -0.00
(Free)E + p*V (eV/cell)    -1075.1793
Target enthalpy (eV/cell)    -1075.7733

                     ====================================
                        Begin CG opt. move =      7
                     ====================================

outcell: Unit cell vectors (Ang):
       14.324000    0.000000    0.000000
        0.000000   14.994000    0.000000
        0.000000    0.000000   10.000000

outcell: Cell vector modules (Ang)   :   14.324000   14.994000   10.000000
outcell: Cell angles (23,13,12) (deg):     90.0000     90.0000     90.0000
outcell: Cell volume (Ang**3)        :   2147.7406
<dSpData1D:S at geom step 7
  <sparsity:sparsity for geom step 7
    nrows_g=108 nrows=108 sparsity=.9985 nnzs=11646, refcount: 7>
  <dData1D:(new from dSpData1D) n=11646, refcount: 1>
refcount: 1>
new_DM -- step:     8
Re-using DM from previous geometries...
Number of DMs in history: 1
 DM extrapolation coefficients: 
1   1.00000
New DM after history re-use:
<dSpData2D:SpM extrapolated using coords
  <sparsity:sparsity for geom step 7
    nrows_g=108 nrows=108 sparsity=.9985 nnzs=11646, refcount: 9>
  <dData2D:(temp array for extrapolation) n=11646 m=1, refcount: 1>
refcount: 1>
Note: For starting DM, Qtot, Tr[D*S] =         30.00000000         29.94070552
No. of atoms with KB's overlaping orbs in proc 0. Max # of overlaps:      12     102

InitMesh: MESH = 150 x 160 x 108 = 2592000
InitMesh: Mesh cutoff (required, used) =   300.000   303.079 Ry
New grid distribution [1]: sub = 2

        iscf     Eharris(eV)        E_KS(eV)     FreeEng(eV)     dDmax    Ef(eV) dHmax(eV)
   scf:    1    -1075.865652    -1075.976784    -1075.976784  0.055441 -4.462256  0.799708
   scf:    2    -1075.626258    -1075.908958    -1075.908958  0.031336 -5.311242  1.248135
   scf:    3    -1076.088057    -1076.036494    -1076.036494  0.018944 -4.796093  0.026921
   scf:    4    -1076.036659    -1076.036581    -1076.036581  0.000424 -4.792776  0.012013
   scf:    5    -1076.036663    -1076.036627    -1076.036627  0.000383 -4.791410  0.004112
   scf:    6    -1076.036635    -1076.036631    -1076.036631  0.000110 -4.791785  0.002376
   scf:    7    -1076.036633    -1076.036632    -1076.036632  0.000060 -4.792199  0.001079
   scf:    8    -1076.036632    -1076.036632    -1076.036632  0.000022 -4.792414  0.000516

SCF Convergence by DM+H criterion
max |DM_out - DM_in|         :     0.0000216213
max |H_out - H_in|      (eV) :     0.0005158867
SCF cycle converged after 8 iterations

Using DM_out to compute the final energy and forces
No. of atoms with KB's overlaping orbs in proc 0. Max # of overlaps:      12     102

siesta: E_KS(eV) =            -1076.0366

siesta: Atomic forces (eV/Ang):
----------------------------------------
   Tot    0.000000    0.000000   -0.000000
----------------------------------------
   Max    0.008340
   Res    0.004644    sqrt( Sum f_i^2 / 3N )
----------------------------------------
   Max    0.008340    constrained

Stress tensor Voigt[x,y,z,yz,xz,xy] (kbar):        0.04        0.05       -0.01       -0.00        0.00        0.00
(Free)E + p*V (eV/cell)    -1076.0734
Target enthalpy (eV/cell)    -1076.0366

cgvc: Finished line minimization    3.  Mean atomic displacement =    0.0017

                     ====================================
                        Begin CG opt. move =      8
                     ====================================

outcell: Unit cell vectors (Ang):
       14.324000    0.000000    0.000000
        0.000000   14.994000    0.000000
        0.000000    0.000000   10.000000

outcell: Cell vector modules (Ang)   :   14.324000   14.994000   10.000000
outcell: Cell angles (23,13,12) (deg):     90.0000     90.0000     90.0000
outcell: Cell volume (Ang**3)        :   2147.7406
<dSpData1D:S at geom step 8
  <sparsity:sparsity for geom step 8
    nrows_g=108 nrows=108 sparsity=.9985 nnzs=11646, refcount: 7>
  <dData1D:(new from dSpData1D) n=11646, refcount: 1>
refcount: 1>
new_DM -- step:     9
Re-using DM from previous geometries...
Number of DMs in history: 1
 DM extrapolation coefficients: 
1   1.00000
New DM after history re-use:
<dSpData2D:SpM extrapolated using coords
  <sparsity:sparsity for geom step 8
    nrows_g=108 nrows=108 sparsity=.9985 nnzs=11646, refcount: 9>
  <dData2D:(temp array for extrapolation) n=11646 m=1, refcount: 1>
refcount: 1>
No. of atoms with KB's overlaping orbs in proc 0. Max # of overlaps:      12     102

InitMesh: MESH = 150 x 160 x 108 = 2592000
InitMesh: Mesh cutoff (required, used) =   300.000   303.079 Ry
New grid distribution [1]: sub = 2

        iscf     Eharris(eV)        E_KS(eV)     FreeEng(eV)     dDmax    Ef(eV) dHmax(eV)
   scf:    1    -1076.021129    -1076.036474    -1076.036474  0.002191 -4.789221  0.016399
   scf:    2    -1076.036326    -1076.036440    -1076.036440  0.001061 -4.783400  0.025832
   scf:    3    -1076.036511    -1076.036492    -1076.036492  0.000622 -4.786773  0.002481
   scf:    4    -1076.036492    -1076.036492    -1076.036492  0.000029 -4.786671  0.001513
   scf:    5    -1076.036492    -1076.036492    -1076.036492  0.000042 -4.786552  0.000090

SCF Convergence by DM+H criterion
max |DM_out - DM_in|         :     0.0000419071
max |H_out - H_in|      (eV) :     0.0000901499
SCF cycle converged after 5 iterations

Using DM_out to compute the final energy and forces
No. of atoms with KB's overlaping orbs in proc 0. Max # of overlaps:      12     102

siesta: E_KS(eV) =            -1076.0365

siesta: Atomic forces (eV/Ang):
----------------------------------------
   Tot   -0.000001   -0.000001   -0.000000
----------------------------------------
   Max    0.075530
   Res    0.028892    sqrt( Sum f_i^2 / 3N )
----------------------------------------
   Max    0.075530    constrained

Stress tensor Voigt[x,y,z,yz,xz,xy] (kbar):       -0.10        0.02       -0.01       -0.00        0.00       -0.00
(Free)E + p*V (eV/cell)    -1075.9963
Target enthalpy (eV/cell)    -1076.0365

                     ====================================
                        Begin CG opt. move =      9
                     ====================================

outcell: Unit cell vectors (Ang):
       14.324000    0.000000    0.000000
        0.000000   14.994000    0.000000
        0.000000    0.000000   10.000000

outcell: Cell vector modules (Ang)   :   14.324000   14.994000   10.000000
outcell: Cell angles (23,13,12) (deg):     90.0000     90.0000     90.0000
outcell: Cell volume (Ang**3)        :   2147.7406
<dSpData1D:S at geom step 9
  <sparsity:sparsity for geom step 9
    nrows_g=108 nrows=108 sparsity=.9985 nnzs=11646, refcount: 7>
  <dData1D:(new from dSpData1D) n=11646, refcount: 1>
refcount: 1>
new_DM -- step:    10
Re-using DM from previous geometries...
Number of DMs in history: 1
 DM extrapolation coefficients: 
1   1.00000
New DM after history re-use:
<dSpData2D:SpM extrapolated using coords
  <sparsity:sparsity for geom step 9
    nrows_g=108 nrows=108 sparsity=.9985 nnzs=11646, refcount: 9>
  <dData2D:(temp array for extrapolation) n=11646 m=1, refcount: 1>
refcount: 1>
No. of atoms with KB's overlaping orbs in proc 0. Max # of overlaps:      12     102

InitMesh: MESH = 150 x 160 x 108 = 2592000
InitMesh: Mesh cutoff (required, used) =   300.000   303.079 Ry
New grid distribution [1]: sub = 2

        iscf     Eharris(eV)        E_KS(eV)     FreeEng(eV)     dDmax    Ef(eV) dHmax(eV)
   scf:    1    -1076.049527    -1076.036623    -1076.036623  0.001886 -4.789503  0.013765
   scf:    2    -1076.036517    -1076.036599    -1076.036599  0.000888 -4.794293  0.021782
   scf:    3    -1076.036650    -1076.036637    -1076.036637  0.000522 -4.791508  0.002086
   scf:    4    -1076.036637    -1076.036637    -1076.036637  0.000024 -4.791590  0.001274
   scf:    5    -1076.036637    -1076.036637    -1076.036637  0.000035 -4.791684  0.000072

SCF Convergence by DM+H criterion
max |DM_out - DM_in|         :     0.0000352836
max |H_out - H_in|      (eV) :     0.0000719462
SCF cycle converged after 5 iterations

Using DM_out to compute the final energy and forces
No. of atoms with KB's overlaping orbs in proc 0. Max # of overlaps:      12     102

siesta: E_KS(eV) =            -1076.0366

siesta: Atomic forces (eV/Ang):
----------------------------------------
   Tot    0.000000    0.000000   -0.000000
----------------------------------------
   Max    0.012096
   Res    0.004750    sqrt( Sum f_i^2 / 3N )
----------------------------------------
   Max    0.012096    constrained

Stress tensor Voigt[x,y,z,yz,xz,xy] (kbar):        0.02        0.04       -0.01       -0.00        0.00       -0.00
(Free)E + p*V (eV/cell)    -1076.0601
Target enthalpy (eV/cell)    -1076.0366

cgvc: Finished line minimization    4.  Mean atomic displacement =    0.0003

                     ====================================
                        Begin CG opt. move =     10
                     ====================================

outcell: Unit cell vectors (Ang):
       14.324000    0.000000    0.000000
        0.000000   14.994000    0.000000
        0.000000    0.000000   10.000000

outcell: Cell vector modules (Ang)   :   14.324000   14.994000   10.000000
outcell: Cell angles (23,13,12) (deg):     90.0000     90.0000     90.0000
outcell: Cell volume (Ang**3)        :   2147.7406
<dSpData1D:S at geom step 10
  <sparsity:sparsity for geom step 10
    nrows_g=108 nrows=108 sparsity=.9985 nnzs=11646, refcount: 7>
  <dData1D:(new from dSpData1D) n=11646, refcount: 1>
refcount: 1>
new_DM -- step:    11
Re-using DM from previous geometries...
Number of DMs in history: 1
 DM extrapolation coefficients: 
1   1.00000
New DM after history re-use:
<dSpData2D:SpM extrapolated using coords
  <sparsity:sparsity for geom step 10
    nrows_g=108 nrows=108 sparsity=.9985 nnzs=11646, refcount: 9>
  <dData2D:(temp array for extrapolation) n=11646 m=1, refcount: 1>
refcount: 1>
No. of atoms with KB's overlaping orbs in proc 0. Max # of overlaps:      12     102

InitMesh: MESH = 150 x 160 x 108 = 2592000
InitMesh: Mesh cutoff (required, used) =   300.000   303.079 Ry
New grid distribution [1]: sub = 2

        iscf     Eharris(eV)        E_KS(eV)     FreeEng(eV)     dDmax    Ef(eV) dHmax(eV)
   scf:    1    -1076.035420    -1076.036641    -1076.036641  0.000361 -4.793562  0.002942
   scf:    2    -1076.036636    -1076.036640    -1076.036640  0.000136 -4.790279  0.004654
   scf:    3    -1076.036642    -1076.036642    -1076.036642  0.000081 -4.792240  0.000249

SCF Convergence by DM+H criterion
max |DM_out - DM_in|         :     0.0000812069
max |H_out - H_in|      (eV) :     0.0002492440
SCF cycle converged after 3 iterations

Using DM_out to compute the final energy and forces
No. of atoms with KB's overlaping orbs in proc 0. Max # of overlaps:      12     102

siesta: E_KS(eV) =            -1076.0366

siesta: Atomic forces (eV/Ang):
----------------------------------------
   Tot   -0.000000    0.000000   -0.000000
----------------------------------------
   Max    0.007565
   Res    0.003000    sqrt( Sum f_i^2 / 3N )
----------------------------------------
   Max    0.007565    constrained

Stress tensor Voigt[x,y,z,yz,xz,xy] (kbar):        0.02        0.02       -0.01        0.00       -0.00       -0.00
(Free)E + p*V (eV/cell)    -1076.0531
Target enthalpy (eV/cell)    -1076.0366

                     ====================================
                        Begin CG opt. move =     11
                     ====================================

outcell: Unit cell vectors (Ang):
       14.324000    0.000000    0.000000
        0.000000   14.994000    0.000000
        0.000000    0.000000   10.000000

outcell: Cell vector modules (Ang)   :   14.324000   14.994000   10.000000
outcell: Cell angles (23,13,12) (deg):     90.0000     90.0000     90.0000
outcell: Cell volume (Ang**3)        :   2147.7406
<dSpData1D:S at geom step 11
  <sparsity:sparsity for geom step 11
    nrows_g=108 nrows=108 sparsity=.9985 nnzs=11646, refcount: 7>
  <dData1D:(new from dSpData1D) n=11646, refcount: 1>
refcount: 1>
new_DM -- step:    12
Re-using DM from previous geometries...
Number of DMs in history: 1
 DM extrapolation coefficients: 
1   1.00000
New DM after history re-use:
<dSpData2D:SpM extrapolated using coords
  <sparsity:sparsity for geom step 11
    nrows_g=108 nrows=108 sparsity=.9985 nnzs=11646, refcount: 9>
  <dData2D:(temp array for extrapolation) n=11646 m=1, refcount: 1>
refcount: 1>
No. of atoms with KB's overlaping orbs in proc 0. Max # of overlaps:      12     102

InitMesh: MESH = 150 x 160 x 108 = 2592000
InitMesh: Mesh cutoff (required, used) =   300.000   303.079 Ry
New grid distribution [1]: sub = 2

        iscf     Eharris(eV)        E_KS(eV)     FreeEng(eV)     dDmax    Ef(eV) dHmax(eV)
   scf:    1    -1076.036909    -1076.036642    -1076.036642  0.000066 -4.791821  0.000642

SCF Convergence by DM+H criterion
max |DM_out - DM_in|         :     0.0000656010
max |H_out - H_in|      (eV) :     0.0006415228
SCF cycle converged after 1 iterations

Using DM_out to compute the final energy and forces
No. of atoms with KB's overlaping orbs in proc 0. Max # of overlaps:      12     102

siesta: E_KS(eV) =            -1076.0366

siesta: Atomic forces (eV/Ang):
----------------------------------------
   Tot    0.000000    0.000000    0.000000
----------------------------------------
   Max    0.004053
   Res    0.002044    sqrt( Sum f_i^2 / 3N )
----------------------------------------
   Max    0.004053    constrained

Stress tensor Voigt[x,y,z,yz,xz,xy] (kbar):        0.02        0.02       -0.01        0.00       -0.00       -0.00
(Free)E + p*V (eV/cell)    -1076.0559
Target enthalpy (eV/cell)    -1076.0366

outcoor: Relaxed atomic coordinates (Ang):                  
    1.23105581    0.71068684    0.00000000   1       1  C
    2.19948578    1.27013845   -0.00000000   2       2  H
    0.00000000    1.42136746    0.00000000   1       3  C
   -0.00000000    2.53979591    0.00000000   2       4  H
   -1.23105581    0.71068683   -0.00000000   1       5  C
   -2.19948578    1.27013846    0.00000000   2       6  H
   -1.23105581   -0.71068683    0.00000000   1       7  C
   -2.19948578   -1.27013845    0.00000000   2       8  H
    0.00000000   -1.42136746   -0.00000000   1       9  C
    0.00000000   -2.53979591   -0.00000000   2      10  H
    1.23105582   -0.71068684    0.00000000   1      11  C
    2.19948578   -1.27013845    0.00000000   2      12  H

coxmol: Writing XMOL coordinates into file optimization.xyz                                                                                                                                                                                                                    

siesta: Program's energy decomposition (eV):
siesta: Ebs     =      -364.796933
siesta: Eions   =      1878.650660
siesta: Ena     =       557.998092
siesta: Ekin    =       730.204263
siesta: Enl     =       -41.372640
siesta: Eso     =         0.000000
siesta: Edftu   =         0.000000
siesta: DEna    =       -49.605423
siesta: DUscf   =         4.828848
siesta: DUext   =         0.000000
siesta: Ex      =      -365.890149
siesta: Ec      =       -33.548973
siesta: Exc     =      -399.439121
siesta: EbV     =         0.000000
siesta: eta*DQ  =         0.000000
siesta: Emadel  =         0.000000
siesta: Emeta   =         0.000000
siesta: Emolmec =         0.000000
siesta: Ekinion =         0.000000
siesta: Eharris =     -1076.036909
siesta: Etot    =     -1076.036642
siesta: FreeEng =     -1076.036642

siesta: Final energy (eV):
siesta:  Band Struct. =    -364.796933
siesta:       Kinetic =     730.204263
siesta:       Hartree =    2179.381292
siesta:         Edftu =       0.000000
siesta:       Eso     =       0.000000
siesta:    Ext. field =       0.000000
siesta:         Exch. =    -365.890149
siesta:         Corr. =     -33.548973
siesta:     Bulk bias =       0.000000
siesta:   Exch.-corr. =    -399.439121
siesta:  Ion-electron =   -5007.225541
siesta:       Ion-ion =    1421.042465
siesta:       Ekinion =       0.000000
siesta: D3 dispersion =       0.000000
siesta:         Total =   -1076.036642
siesta:         Fermi =      -4.791821

siesta: Stress tensor (static) (eV/Ang**3):
siesta:     0.000015    0.000000   -0.000000
siesta:    -0.000000    0.000015    0.000000
siesta:    -0.000000    0.000000   -0.000004

siesta: Cell volume =       2147.740560 Ang**3

siesta: Pressure (static):
siesta:                Solid            Molecule  Units
siesta:          -0.00000010         -0.00000001  Ry/Bohr**3
siesta:          -0.00000895         -0.00000062  eV/Ang**3
siesta:          -0.01433824         -0.00099061  kBar
(Free)E+ p_basis*V_orbitals  =       -1075.104351
(Free)Eharris+ p_basis*V_orbitals  =       -1075.104618

siesta: Electric dipole (a.u.)  =    0.000000   -0.000000   -0.000000
siesta: Electric dipole (Debye) =    0.000000   -0.000000   -0.000000

cite: Please see "optimization.bib" for an exhaustive BiBTeX file.
cite: Please clearly indicate Siesta version in published work: 5.2.1
cite: This calculation has made use of the following articles
cite: which are encouraged to be cited in a published work.
        Primary SIESTA paper
          DOI: www.doi.org/10.1088/0953-8984/14/11/302


timer: Elapsed wall time (sec) =     309.683
timer: CPU execution times (sec):

Routine            Calls   Time/call    Tot.time        %
siesta                 1     328.609     328.609   100.00
Setup                  1       0.409       0.409     0.12
bands                  1       0.000       0.000     0.00
KSV_init               1       0.000       0.000     0.00
IterGeom              12      27.349     328.190    99.87
geom_init             12       5.300      63.599    19.35
state_init            12       0.022       0.268     0.08
hsparse               12       0.000       0.006     0.00
overlap               12       0.021       0.253     0.08
Setup_H0              12       2.909      34.911    10.62
naefs                 24       0.000       0.002     0.00
dnaefs                24       0.000       0.001     0.00
MolMec                24       0.000       0.000     0.00
kinefsm               24       0.012       0.297     0.09
nlefsm                24       0.028       0.675     0.21
DHSCF_Init            12       2.851      34.207    10.41
DHSCF1                12       0.074       0.890     0.27
InitMesh              12       0.074       0.889     0.27
INITMESH              12       0.000       0.000     0.00
DHSCF2                12       2.776      33.316    10.14
REMESH                12       0.139       1.669     0.51
REORD                378       0.004       1.674     0.51
PHION                 12       2.118      25.421     7.74
COMM_BSC             432       0.003       1.461     0.44
POISON               111       0.195      21.609     6.58
fft                  222       0.071      15.736     4.79
setup_H               87       2.577     224.223    68.23
DHSCF                 99       2.946     291.632    88.75
DHSCF3                99       2.550     252.435    76.82
rhoofd                99       0.821      81.282    24.74
XC                    99       0.984      97.446    29.65
GXC-CellXC            99       0.963      95.336    29.01
gridxc@cellXC         99       0.963      95.336    29.01
vmat                  99       0.458      45.385    13.81
IterSCF               75       2.621     196.595    59.83
compute_dm            75       0.010       0.755     0.23
diagon                75       0.010       0.746     0.23
r-eigvec              75       0.006       0.451     0.14
r-buildHS             75       0.000       0.005     0.00
rdiag                 75       0.006       0.446     0.14
rdiag1                75       0.000       0.033     0.01
rdiag2                75       0.001       0.059     0.02
rdiag3                75       0.005       0.340     0.10
rdiag4                75       0.000       0.011     0.00
r-buildD              75       0.004       0.288     0.09
MIXER                 63       0.000       0.008     0.00
PostSCF               12       5.665      67.984    20.69
FINAL_HF              12       5.665      67.984    20.69
DHSCF4                12       3.266      39.196    11.93
dfscf                 12       2.890      34.684    10.55
overfsm               12       0.004       0.048     0.01
writeHSX              12       0.000       0.005     0.00
state_analysis        12       0.000       0.003     0.00
siesta_move           12       0.000       0.006     0.00
Analysis               1       0.001       0.001     0.00
optical                1       0.000       0.000     0.00
  

>> End of run:  15-MAY-2025  12:05:05
Job completed
Job completed
