<preamble>

<basis_specs>
===============================================================================
C                    Z=   6    Mass=  12.011        Charge= 0.17977+309
Lmxo=2 Lmxkb= 1    BasisType=split      Semic=F
L=0  Nsemic=0  Cnfigmx=2
          i=1  nzeta=2  polorb=0  (2s)
            splnorm:   0.15000    
               vcte:    40.000    
               rinn:    5.2844    
               qcoe:    0.0000    
               qyuk:    0.0000    
               qwid:   0.10000E-01
                rcs:    5.8657      3.3029    
            lambdas:    1.0000      1.0000    
L=1  Nsemic=0  Cnfigmx=2
          i=1  nzeta=2  polorb=1  (2p)  (to be polarized perturbatively)
            splnorm:   0.15000    
               vcte:    40.000    
               rinn:    6.8152    
               qcoe:    0.0000    
               qyuk:    0.0000    
               qwid:   0.10000E-01
                rcs:    7.5648      4.2524    
            lambdas:    1.0000      1.0000    
L=2  Nsemic=0  Cnfigmx=3
          i=1  nzeta=0  polorb=0  (3d)  (perturbative polarization orbital) (from 2p)
-------------------------------------------------------------------------------
L=0  Nkbl=1  erefs: 0.17977+309
L=1  Nkbl=1  erefs: 0.17977+309
===============================================================================
</basis_specs>

<pseudopotential_header>
 C  pb nrl pcec
 ONCVPSP-3.2017-10-31Hamann's oncvpsp                        
 2s 2.00  r= 1.20/2p 2.00  r= 1.26/                                     2s:2p:
</pseudopotential_header>
</preamble>
C                             # Symbol
C                             # Label
    6                         # Atomic number
     4.00000000000                             # Valence charge
     12.0110000000        # Mass 
     20.7385030847        # Self energy 
   2   5                      # Lmax for basis, no. of nl orbitals 
   1   4                      # Lmax for projectors, no. of nl KB projectors
# PAOs:__________________________
  0  2  1  0  2.000000   #orbital l, n, z, is_polarized, population
 500    0.1175496412751947E-01     5.865727099632217     # npts, delta, cutoff
     0.000000000000000        0.3639532487320795    
    0.1175496412751947E-01    0.3642384472319850    
    0.2350992825503894E-01    0.3651004847043988    
    0.3526489238255841E-01    0.3665344617947980    
    0.4701985651007789E-01    0.3685362594501010    
    0.5877482063759736E-01    0.3711001346827571    
    0.7052978476511683E-01    0.3742187431367746    
    0.8228474889263630E-01    0.3778831682708514    
    0.9403971302015578E-01    0.3820829567354442    
    0.1057946771476753        0.3868061597160241    
    0.1175496412751947        0.3920393800053283    
    0.1293046054027142        0.3977678245410886    
    0.1410595695302337        0.4039753621182926    
    0.1528145336577531        0.4106445859592160    
    0.1645694977852726        0.4177568808008386    
    0.1763244619127921        0.4252924941382284    
    0.1880794260403116        0.4332306112441268    
    0.1998343901678310        0.4415494335694344    
    0.2115893542953505        0.4502262601167202    
    0.2233443184228700        0.4592375713691545    
    0.2350992825503894        0.4685591153505936    
    0.2468542466779089        0.4781659953887247    
    0.2586092108054284        0.4880327591523096    
    0.2703641749329478        0.4981334885354945    
    0.2821191390604673        0.5084418899667891    
    0.2938741031879868        0.5189313847275890    
    0.3056290673155063        0.5295751988748181    
    0.3173840314430257        0.5403464523742711    
    0.3291389955705452        0.5512182470653852    
    0.3408939596980647        0.5621637530942124    
    0.3526489238255842        0.5731562934691560    
    0.3644038879531036        0.5841694264133573    
    0.3761588520806231        0.5951770252081796    
    0.3879138162081426        0.6061533552439788    
    0.3996687803356621        0.6170731480168469    
    0.4114237444631815        0.6279116718332276    
    0.4231787085907010        0.6386447990079511    
    0.4349336727182205        0.6492490693650518    
    0.4466886368457400        0.6597017498746889    
    0.4584436009732594        0.6699808902831946    
    0.4701985651007789        0.6800653746167538    
    0.4819535292282984        0.6899349684622171    
    0.4937084933558178        0.6995703619508397    
    0.5054634574833373        0.7089532083925913    
    0.5172184216108567        0.7180661585292550    
    0.5289733857383763        0.7268928903947136    
    0.5407283498658957        0.7354181347895901    
    0.5524833139934152        0.7436276963954449    
    0.5642382781209346        0.7515084705704644    
    0.5759932422484542        0.7590484558845351    
    0.5877482063759736        0.7662367624660762    
    0.5995031705034931        0.7730636162467677    
    0.6112581346310125        0.7795203592028438    
    0.6230130987585321        0.7855994457031171    
    0.6347680628860515        0.7912944350845431    
    0.6465230270135710        0.7965999805856582    
    0.6582779911410904        0.8015118147771501    
    0.6700329552686100        0.8060267316365642    
    0.6817879193961294        0.8101425654215114    
    0.6935428835236489        0.8138581665021014    
    0.7052978476511683        0.8171733743192359    
    0.7170528117786878        0.8200889876405933    
    0.7288077759062073        0.8226067322908874    
    0.7405627400337268        0.8247292265372198    
    0.7523177041612462        0.8264599443140641    
    0.7640726682887656        0.8278031764757490    
    0.7758276324162852        0.8287639902673708    
    0.7875825965438046        0.8293481872074198    
    0.7993375606713241        0.8295622595778055    
    0.8110925247988435        0.8294133457185469    
    0.8228474889263631        0.8289091843259399    
    0.8346024530538825        0.8280580679539451    
    0.8463574171814020        0.8268687959190860    
    0.8581123813089214        0.8253506268092536    
    0.8698673454364410        0.8235132307964026    
    0.8816223095639604        0.8213666419521536    
    0.8933772736914799        0.8189212107637895    
    0.9051322378189993        0.8161875570459545    
    0.9168872019465188        0.8131765234405729    
    0.9286421660740383        0.8098991296938747    
    0.9403971302015578        0.8063665278952341    
    0.9521520943290772        0.8025899588572641    
    0.9639070584565967        0.7985807098109495    
    0.9756620225841162        0.7943500735825861    
    0.9874169867116357        0.7899093094119323    
    0.9991719508391551        0.7852696071332138    
     1.010926914966675        0.7804420533177970    
     1.022681879094194        0.7754375834708175    
     1.034436843221713        0.7702669685770371    
     1.046191807349233        0.7649407796733695    
     1.057946771476753        0.7594693613316943    
     1.069701735604272        0.7538628076093500    
     1.081456699731791        0.7481309405414617    
     1.093211663859311        0.7422832912300624    
     1.104966627986830        0.7363290835698383    
     1.116721592114350        0.7302772206351075    
     1.128476556241869        0.7241362737377444    
     1.140231520369389        0.7179144741495368    
     1.151986484496908        0.7116197074675243    
     1.163741448624428        0.7052595105848687    
     1.175496412751947        0.6988410712029647    
     1.187251376879467        0.6923712299106356    
     1.199006341006986        0.6858564844783310    
     1.210761305134506        0.6793029964056567    
     1.222516269262025        0.6727166047653220    
     1.234271233389544        0.6661028466682478    
     1.246026197517064        0.6594669753773464    
     1.257781161644584        0.6528139719543498    
     1.269536125772103        0.6461485571387587    
     1.281291089899622        0.6394752028504470    
     1.293046054027142        0.6327981431576405    
     1.304801018154661        0.6261213845099962    
     1.316555982282181        0.6194487160051254    
     1.328310946409700        0.6127837190258139    
     1.340065910537220        0.6061297764599934    
     1.351820874664739        0.5994900814397018    
     1.363575838792259        0.5928676459237624    
     1.375330802919778        0.5862653087618869    
     1.387085767047298        0.5796857434850008    
     1.398840731174817        0.5731314657561279    
     1.410595695302337        0.5666048405075302    
     1.422350659429856        0.5601080887785052    
     1.434105623557376        0.5536432942647251    
     1.445860587684895        0.5472124095911586    
     1.457615551812415        0.5408172623197937    
     1.469370515939934        0.5344595607029402    
     1.481125480067454        0.5281408991925992    
     1.492880444194973        0.5218627637157066    
     1.504635408322492        0.5156265367248674    
     1.516390372450012        0.5094335020338930    
     1.528145336577531        0.5032848494468122    
     1.539900300705051        0.4971816791889003    
     1.551655264832570        0.4911250061479737    
     1.563410228960090        0.4851157639334632    
     1.575165193087609        0.4791548087611592    
     1.586920157215129        0.4732429231706352    
     1.598675121342648        0.4673808195821121    
     1.610430085470168        0.4615691436999531    
     1.622185049597687        0.4558084777684530    
     1.633940013725207        0.4500993436864631    
     1.645694977852726        0.4444422059870278    
     1.657449941980246        0.4388374746867474    
     1.669204906107765        0.4332855080113422    
     1.680959870235285        0.4277866150018763    
     1.692714834362804        0.4223410580068323    
     1.704469798490323        0.4169490550651783    
     1.716224762617843        0.4116107821841933    
     1.727979726745362        0.4063263755174679    
     1.739734690872882        0.4010959334464089    
     1.751489655000401        0.3959195185698987    
     1.763244619127921        0.3907971596056847    
     1.774999583255440        0.3857288532072669    
     1.786754547382960        0.3807145657000518    
     1.798509511510479        0.3757542347398469    
     1.810264475637999        0.3708477708973174    
     1.822019439765518        0.3659950591713505    
     1.833774403893038        0.3611959604344428    
     1.845529368020557        0.3564503128128990    
     1.857284332148077        0.3517579330047337    
     1.869039296275596        0.3471186175378510    
     1.880794260403116        0.3425321439711547    
     1.892549224530635        0.3379982720408130    
     1.904304188658154        0.3335167447543611    
     1.916059152785674        0.3290872894344266    
     1.927814116913193        0.3247096187148110    
     1.939569081040713        0.3203834314902963    
     1.951324045168232        0.3161084138229214    
     1.963079009295752        0.3118842398057675    
     1.974833973423271        0.3077105723869873    
     1.986588937550791        0.3035870641548700    
     1.998343901678310        0.2995133580865351    
     2.010098865805830        0.2954890882609534    
     2.021853829933349        0.2915138805386576    
     2.033608794060869        0.2875873532088460    
     2.045363758188388        0.2837091176059527    
     2.057118722315908        0.2798787786964729    
     2.068873686443427        0.2760959356377464    
     2.080628650570946        0.2723601823096405    
     2.092383614698466        0.2686711078204868    
     2.104138578825986        0.2650282969883216    
     2.115893542953505        0.2614313307985208    
     2.127648507081024        0.2578797868389014    
     2.139403471208544        0.2543732397132299    
     2.151158435336063        0.2509112614341266    
     2.162913399463583        0.2474934217962761    
     2.174668363591102        0.2441192887307502    
     2.186423327718622        0.2407884286414224    
     2.198178291846141        0.2375004067240312    
     2.209933255973661        0.2342547872689689    
     2.221688220101180        0.2310511339481907    
     2.233443184228700        0.2278890100872650    
     2.245198148356219        0.2247679789229718    
     2.256953112483739        0.2216876038472543    
     2.268708076611258        0.2186474486380794    
     2.280463040738777        0.2156470776777614    
     2.292218004866297        0.2126860561594026    
     2.303972968993817        0.2097639502818752    
     2.315727933121336        0.2068803274339548    
     2.327482897248855        0.2040347563680414    
     2.339237861376375        0.2012268073639486    
     2.350992825503894        0.1984560523832257    
     2.362747789631414        0.1957220652144420    
     2.374502753758933        0.1930244216097954    
     2.386257717886453        0.1903626994135495    
     2.398012682013972        0.1877364786825154    
     2.409767646141492        0.1851453417991100    
     2.421522610269011        0.1825888735772057    
     2.433277574396531        0.1800666613611394    
     2.445032538524050        0.1775782951182610    
     2.456787502651570        0.1751233675251704    
     2.468542466779089        0.1727014740481161    
     2.480297430906609        0.1703122130176765    
     2.492052395034128        0.1679551856980556    
     2.503807359161648        0.1656299963512722    
     2.515562323289167        0.1633362522963604    
     2.527317287416686        0.1610735639640826    
     2.539072251544206        0.1588415449468823    
     2.550827215671725        0.1566398120445922    
     2.562582179799245        0.1544679853060794    
     2.574337143926765        0.1523256880694268    
     2.586092108054284        0.1502125469938613    
     2.597847072181803        0.1481281920905999    
     2.609602036309323        0.1460722567487579    
     2.621357000436842        0.1440443777641663    
     2.633111964564362        0.1420441953580401    
     2.644866928691881        0.1400713531961785    
     2.656621892819401        0.1381254984029615    
     2.668376856946920        0.1362062815752407    
     2.680131821074440        0.1343133567932911    
     2.691886785201959        0.1324463816289422    
     2.703641749329479        0.1306050171514285    
     2.715396713456998        0.1287889279313002    
     2.727151677584517        0.1269977820422408    
     2.738906641712037        0.1252312510609670    
     2.750661605839556        0.1234890100653238    
     2.762416569967076        0.1217707376306660    
     2.774171534094596        0.1200761158245855    
     2.785926498222115        0.1184048302000755    
     2.797681462349634        0.1167565697872272    
     2.809436426477154        0.1151310270835266    
     2.821191390604673        0.1135278980428301    
     2.832946354732193        0.1119468820630912    
     2.844701318859712        0.1103876819729002    
     2.856456282987232        0.1088500040169092    
     2.868211247114751        0.1073335578402012    
     2.879966211242271        0.1058380564716623    
     2.891721175369790        0.1043632163064141    
     2.903476139497310        0.1029087570873664    
     2.915231103624829        0.1014744018859330    
     2.926986067752348        0.1000598770819701    
     2.938741031879868        0.9866491234297933E-01
     2.950495996007387        0.9728924060262333E-01
     2.962250960134907        0.9593259803859754E-01
     2.974005924262427        0.9459472404990185E-01
     2.985760888389946        0.9327536123354908E-01
     2.997515852517465        0.9197425536075307E-01
     3.009270816644985        0.9069115535262993E-01
     3.021025780772504        0.8942581325544990E-01
     3.032780744900024        0.8817798421547166E-01
     3.044535709027543        0.8694742645339418E-01
     3.056290673155063        0.8573390123845549E-01
     3.068045637282582        0.8453717286220998E-01
     3.079800601410102        0.8335700861200750E-01
     3.091555565537621        0.8219317874420998E-01
     3.103310529665141        0.8104545645716490E-01
     3.115065493792660        0.7991361786395904E-01
     3.126820457920179        0.7879744196498803E-01
     3.138575422047699        0.7769671062035000E-01
     3.150330386175218        0.7661120852209190E-01
     3.162085350302738        0.7554072316633276E-01
     3.173840314430258        0.7448504482528109E-01
     3.185595278557777        0.7344396651915699E-01
     3.197350242685296        0.7241728398805350E-01
     3.209105206812816        0.7140479566374486E-01
     3.220860170940335        0.7040630264145382E-01
     3.232615135067855        0.6942160865160377E-01
     3.244370099195374        0.6845052003157041E-01
     3.256125063322894        0.6749284569743733E-01
     3.267880027450413        0.6654839711577452E-01
     3.279634991577933        0.6561698827546397E-01
     3.291389955705452        0.6469843565956915E-01
     3.303144919832972        0.6379255821725827E-01
     3.314899883960491        0.6289917733581588E-01
     3.326654848088010        0.6201811681273129E-01
     3.338409812215530        0.6114920282787478E-01
     3.350164776343050        0.6029226391578554E-01
     3.361919740470569        0.5944713093807379E-01
     3.373674704598089        0.5861363705594180E-01
     3.385429668725608        0.5779161770282543E-01
     3.397184632853127        0.5698091055719297E-01
     3.408939596980647        0.5618135551547988E-01
     3.420694561108166        0.5539279466516411E-01
     3.432449525235686        0.5461507225801946E-01
     3.444204489363205        0.5384803468352811E-01
     3.455959453490725        0.5309153044246097E-01
     3.467714417618244        0.5234541012062754E-01
     3.479469381745764        0.5160952636282558E-01
     3.491224345873283        0.5088373384696725E-01
     3.502979310000803        0.5016788925838289E-01
     3.514734274128322        0.4946185126434390E-01
     3.526489238255841        0.4876548048877605E-01
     3.538244202383361        0.4807863948717442E-01
     3.549999166510881        0.4740119272171305E-01
     3.561754130638400        0.4673300653658757E-01
     3.573509094765920        0.4607394913355554E-01
     3.585264058893439        0.4542389054768105E-01
     3.597019023020958        0.4478270262331342E-01
     3.608773987148478        0.4415025899028384E-01
     3.620528951275997        0.4352643504032144E-01
     3.632283915403517        0.4291110790367291E-01
     3.644038879531037        0.4230415642598020E-01
     3.655793843658556        0.4170546114536453E-01
     3.667548807786075        0.4111490426973781E-01
     3.679303771913595        0.4053236965433404E-01
     3.691058736041114        0.3995774277949340E-01
     3.702813700168634        0.3939091072866175E-01
     3.714568664296153        0.3883176216660817E-01
     3.726323628423672        0.3828018731788863E-01
     3.738078592551192        0.3773607794554166E-01
     3.749833556678712        0.3719932733001246E-01
     3.761588520806231        0.3666983024828537E-01
     3.773343484933751        0.3614748295328015E-01
     3.785098449061270        0.3563218315346341E-01
     3.796853413188789        0.3512382999269416E-01
     3.808608377316309        0.3462232403027404E-01
     3.820363341443828        0.3412756722126681E-01
     3.832118305571348        0.3363946289702222E-01
     3.843873269698868        0.3315791574593337E-01
     3.855628233826387        0.3268283179439990E-01
     3.867383197953906        0.3221411838805417E-01
     3.879138162081426        0.3175168417318870E-01
     3.890893126208945        0.3129543907841133E-01
     3.902648090336465        0.3084529429650662E-01
     3.914403054463984        0.3040116226655230E-01
     3.926158018591503        0.2996295665623275E-01
     3.937912982719023        0.2953059234437407E-01
     3.949667946846543        0.2910398540368416E-01
     3.961422910974062        0.2868305308373768E-01
     3.973177875101582        0.2826771379415523E-01
     3.984932839229101        0.2785788708799745E-01
     3.996687803356620        0.2745349364535745E-01
     4.008442767484140        0.2705445525719322E-01
     4.020197731611660        0.2666069480934613E-01
     4.031952695739179        0.2627213626677023E-01
     4.043707659866699        0.2588870465795033E-01
     4.055462623994218        0.2551032605955457E-01
     4.067217588121737        0.2513692758126596E-01
     4.078972552249257        0.2476843735082020E-01
     4.090727516376776        0.2440478449921940E-01
     4.102482480504296        0.2404589914617754E-01
     4.114237444631815        0.2369171238573609E-01
     4.125992408759335        0.2334215627208032E-01
     4.137747372886854        0.2299716380552065E-01
     4.149502337014374        0.2265666891869931E-01
     4.161257301141893        0.2232060646296115E-01
     4.173012265269413        0.2198891219491582E-01
     4.184767229396932        0.2166152276316108E-01
     4.196522193524451        0.2133837569521476E-01
     4.208277157651971        0.2101940938461184E-01
     4.220032121779490        0.2070456307818003E-01
     4.231787085907010        0.2039377686347902E-01
     4.243542050034529        0.2008699165641857E-01
     4.255297014162049        0.1978414918905656E-01
     4.267051978289568        0.1948519199755368E-01
     4.278806942417088        0.1919006341029866E-01
     4.290561906544608        0.1889870753618065E-01
     4.302316870672127        0.1861106925305615E-01
     4.314071834799647        0.1832709419635358E-01
     4.325826798927165        0.1804672874784618E-01
     4.337581763054685        0.1776992002456007E-01
     4.349336727182204        0.1749661586786695E-01
     4.361091691309724        0.1722676483271355E-01
     4.372846655437244        0.1696031617700511E-01
     4.384601619564763        0.1669721985113100E-01
     4.396356583692283        0.1643742648763800E-01
     4.408111547819802        0.1618088739106215E-01
     4.419866511947322        0.1592755452789039E-01
     4.431621476074841        0.1567738051667065E-01
     4.443376440202361        0.1543031861824224E-01
     4.455131404329880        0.1518632272613322E-01
     4.466886368457399        0.1494534735707551E-01
     4.478641332584919        0.1470734764165936E-01
     4.490396296712438        0.1447227931511230E-01
     4.502151260839958        0.1424009870821145E-01
     4.513906224967477        0.1401076273833428E-01
     4.525661189094997        0.1378422890062510E-01
     4.537416153222516        0.1356045525929356E-01
     4.549171117350036        0.1333940043901897E-01
     4.560926081477555        0.1312102361650124E-01
     4.572681045605075        0.1290528451211789E-01
     4.584436009732594        0.1269214338170184E-01
     4.596190973860113        0.1248156100843405E-01
     4.607945937987633        0.1227349869484430E-01
     4.619700902115152        0.1206791825494315E-01
     4.631455866242672        0.1186478200645137E-01
     4.643210830370191        0.1166405276314565E-01
     4.654965794497711        0.1146569382730280E-01
     4.666720758625231        0.1126966898226051E-01
     4.678475722752750        0.1107594248508445E-01
     4.690230686880270        0.1088447905933298E-01
     4.701985651007789        0.1069524388793047E-01
     4.713740615135309        0.1050820260612589E-01
     4.725495579262827        0.1032332129457171E-01
     4.737250543390347        0.1014056647248923E-01
     4.749005507517866        0.9959905090931394E-02
     4.760760471645386        0.9781304526143599E-02
     4.772515435772906        0.9604732573004607E-02
     4.784270399900425        0.9430157438581032E-02
     4.796025364027945        0.9257547735758334E-02
     4.807780328155464        0.9086872476964842E-02
     4.819535292282984        0.8918101067983955E-02
     4.831290256410503        0.8751203301845124E-02
     4.843045220538023        0.8586149352815617E-02
     4.854800184665542        0.8422909770465281E-02
     4.866555148793061        0.8261455473817498E-02
     4.878310112920581        0.8101757745579741E-02
     4.890065077048100        0.7943788226451037E-02
     4.901820041175620        0.7787518909519027E-02
     4.913575005303139        0.7632922134726114E-02
     4.925329969430659        0.7479970583415285E-02
     4.937084933558178        0.7328637272949092E-02
     4.948839897685698        0.7178895551401005E-02
     4.960594861813218        0.7030719092327956E-02
     4.972349825940737        0.6884081889607836E-02
     4.984104790068256        0.6738958252350193E-02
     4.995859754195775        0.6595322799875025E-02
     5.007614718323295        0.6453150456757672E-02
     5.019369682450814        0.6312416447949437E-02
     5.031124646578334        0.6173096293957665E-02
     5.042879610705853        0.6035165806093518E-02
     5.054634574833373        0.5898601081783315E-02
     5.066389538960893        0.5763378499939822E-02
     5.078144503088412        0.5629474716403788E-02
     5.089899467215932        0.5496866659440700E-02
     5.101654431343451        0.5365531525299464E-02
     5.113409395470971        0.5235446773830756E-02
     5.125164359598489        0.5106590124158988E-02
     5.136919323726009        0.4978939550420048E-02
     5.148674287853529        0.4852473277550244E-02
     5.160429251981048        0.4727169777131163E-02
     5.172184216108568        0.4603007763291185E-02
     5.183939180236087        0.4479966188655020E-02
     5.195694144363607        0.4358024240353761E-02
     5.207449108491126        0.4237161336082843E-02
     5.219204072618646        0.4117357120211282E-02
     5.230959036746165        0.3998591459942714E-02
     5.242714000873685        0.3880844441521940E-02
     5.254468965001204        0.3764096366494225E-02
     5.266223929128723        0.3648327748011732E-02
     5.277978893256243        0.3533519307185686E-02
     5.289733857383762        0.3419651969485521E-02
     5.301488821511282        0.3306706861183101E-02
     5.313243785638801        0.3194665305840201E-02
     5.324998749766321        0.3083508821529885E-02
     5.336753713893840        0.2973219156331775E-02
     5.348508678021360        0.2863778757724990E-02
     5.360263642148880        0.2755172841298760E-02
     5.372018606276399        0.2647393897595408E-02
     5.383773570403918        0.2540447731452298E-02
     5.395528534531437        0.2434359125208465E-02
     5.407283498658957        0.2329175655250510E-02
     5.419038462786476        0.2224969134376173E-02
     5.430793426913996        0.2121834866158815E-02
     5.442548391041516        0.2019889231423043E-02
     5.454303355169035        0.1919266190347690E-02
     5.466058319296555        0.1820113211631822E-02
     5.477813283424074        0.1722587022889428E-02
     5.489568247551594        0.1626849460064041E-02
     5.501323211679113        0.1533063596396990E-02
     5.513078175806633        0.1441390257261035E-02
     5.524833139934151        0.1351984973758339E-02
     5.536588104061671        0.1264995391299204E-02
     5.548343068189191        0.1180559125247791E-02
     5.560098032316710        0.1098802040644387E-02
     5.571852996444230        0.1019836924260999E-02
     5.583607960571749        0.9437625128053788E-03
     5.595362924699269        0.8706628394973189E-03
     5.607117888826788        0.8006068615034188E-03
     5.618872852954308        0.7336483321084636E-03
     5.630627817081828        0.6698258835561478E-03
     5.642382781209347        0.6091632888753827E-03
     5.654137745336866        0.5516698735006829E-03
     5.665892709464385        0.4973410499423784E-03
     5.677647673591905        0.4461589510520517E-03
     5.689402637719424        0.3980931394626986E-03
     5.701157601846944        0.3531013724614980E-03
     5.712912565974463        0.3111304027426595E-03
     5.724667530101983        0.2721167959712472E-03
     5.736422494229503        0.2359877455080037E-03
     5.748177458357022        0.2026618623261267E-03
     5.759932422484542        0.1720499128189400E-03
     5.771687386612061        0.1440554662764869E-03
     5.783442350739580        0.1185753918239304E-03
     5.795197314867099        0.9550009907525712E-04
     5.806952278994619        0.7471331669471678E-04
     5.818707243122138        0.5609096299232916E-04
     5.830462207249658        0.3949801102997388E-04
     5.842217171377178        0.2478013689079934E-04
     5.853972135504697        0.1173784594462327E-04
     5.865727099632217         0.000000000000000    
  0  2  2  0  0.000000   #orbital l, n, z, is_polarized, population
 500    0.6619077082662538E-02     3.302919464248606     # npts, delta, cutoff
     0.000000000000000        0.2698400451172044    
    0.6619077082662538E-02    0.2699787462115505    
    0.1323815416532508E-01    0.2704060022545036    
    0.1985723124798761E-01    0.2711176689517517    
    0.2647630833065015E-01    0.2721130997026029    
    0.3309538541331269E-01    0.2733913921210411    
    0.3971446249597523E-01    0.2749513882310280    
    0.4633353957863776E-01    0.2767916757986137    
    0.5295261666130030E-01    0.2789105900864767    
    0.5957169374396284E-01    0.2813062159485842    
    0.6619077082662538E-01    0.2839763902453806    
    0.7280984790928791E-01    0.2869187045708331    
    0.7942892499195045E-01    0.2901305082850265    
    0.8604800207461299E-01    0.2936089118463198    
    0.9266707915727553E-01    0.2973507904369044    
    0.9928615623993806E-01    0.3013527878751988    
    0.1059052333226006        0.3056113208081040    
    0.1125243104052631        0.3101225831756917    
    0.1191433874879257        0.3148825509404506    
    0.1257624645705882        0.3198869870728194    
    0.1323815416532508        0.3251314467842814    
    0.1390006187359133        0.3306112829989617    