<preamble>

<basis_specs>
===============================================================================
H                    Z=   1    Mass=  1.0080        Charge= 0.17977+309
Lmxo=1 Lmxkb= 1    BasisType=split      Semic=F
L=0  Nsemic=0  Cnfigmx=1
          i=1  nzeta=2  polorb=1  (1s)  (to be polarized perturbatively)
            splnorm:   0.15000    
               vcte:    40.000    
               rinn:    6.5149    
               qcoe:    0.0000    
               qyuk:    0.0000    
               qwid:   0.10000E-01
                rcs:    7.2388      4.0445    
            lambdas:    1.0000      1.0000    
L=1  Nsemic=0  Cnfigmx=2
          i=1  nzeta=0  polorb=0  (2p)  (perturbative polarization orbital) (from 1s)
-------------------------------------------------------------------------------
L=0  Nkbl=1  erefs: 0.17977+309
L=1  Nkbl=1  erefs: 0.17977+309
===============================================================================
</basis_specs>

<pseudopotential_header>
 H  pb nrl nc  
 ONCVPSP-3.2017-10-31Hamann's oncvpsp                        
 1s 1.00  r= 1.01/2p 0.00  r= 0.71/                                     1s:
</pseudopotential_header>
</preamble>
H                             # Symbol
H                             # Label
    1                         # Atomic number
     1.00000000000                             # Valence charge
     1.00800000000        # Mass 
     2.27454303331        # Self energy 
   1   3                      # Lmax for basis, no. of nl orbitals 
   1   3                      # Lmax for projectors, no. of nl KB projectors
# PAOs:__________________________
  0  1  1  0  1.000000   #orbital l, n, z, is_polarized, population
 500    0.1450652426675257E-01     7.238755609109535     # npts, delta, cutoff
     0.000000000000000         1.559003458103762    
    0.1450652426675257E-01     1.558556945988617    
    0.2901304853350515E-01     1.557227030009299    
    0.4351957280025773E-01     1.555016598832898    
    0.5802609706701030E-01     1.551934702854057    
    0.7253262133376287E-01     1.547993834623002    
    0.8703914560051546E-01     1.543209755892823    
    0.1015456698672680         1.537601283777858    
    0.1160521941340206         1.531190041557130    
    0.1305587184007732         1.524000180728636    
    0.1450652426675257         1.516058081592157    
    0.1595717669342783         1.507392040052355    
    0.1740782912010309         1.498031948491498    
    0.1885848154677835         1.488008978461832    
    0.2030913397345361         1.477355272597425    
    0.2175978640012886         1.466103652559202    
    0.2321043882680412         1.454287349028429    
    0.2466109125347938         1.441939758782569    
    0.2611174368015464         1.429094232760692    
    0.2756239610682989         1.415783897794856    
    0.2901304853350515         1.402041513393205    
    0.3046370096018041         1.387899363657660    
    0.3191435338685567         1.373389183150133    
    0.3336500581353092         1.358542114331024    
    0.3481565824020618         1.343388693124610    
    0.3626631066688144         1.327958858254684    
    0.3771696309355669         1.312281979271378    
    0.3916761552023195         1.296386897680179    
    0.4061826794690721         1.280301975303440    
    0.4206892037358247         1.264055143958962    
    0.4351957280025772         1.247673950730731    
    0.4497022522693298         1.231185593520132    
    0.4642087765360824         1.214616942188146    
    0.4787153008028350         1.197994541400322    
    0.4932218250695876         1.181344592238044    
    0.5077283493363401         1.164692910702185    
    0.5222348736030927         1.148064865918652    
    0.5367413978698453         1.131485283607434    
    0.5512479221365978         1.114978337074125    
    0.5657544464033504         1.098567423189292    
    0.5802609706701030         1.082275013670961    
    0.5947674949368555         1.066122498498953    
    0.6092740192036081         1.050130023336169    
    0.6237805434703607         1.034316326569647    
    0.6382870677371133         1.018698581845246    
    0.6527935920038659         1.003292252009054    
    0.6673001162706185        0.9881109601803927    
    0.6818066405373711        0.9731663832759974    
    0.6963131648041236        0.9584681726945242    
    0.7108196890708761        0.9440239060780174    
    0.7253262133376287        0.9298390731207051    
    0.7398327376043813        0.9159170973294325    
    0.7543392618711339        0.9022593944925911    
    0.7688457861378865        0.8888654674266142    
    0.7833523104046390        0.8757330353832783    
    0.7978588346713916        0.8628581953597346    
    0.8123653589381442        0.8502356114963918    
    0.8268718832048968        0.8378587278131724    
    0.8413784074716494        0.8257199987547240    
    0.8558849317384019        0.8138111314171653    
    0.8703914560051544        0.8021233329332687    
    0.8848979802719070        0.7906475563129066    
    0.8994045045386596        0.7793747380766448    
    0.9139110288054122        0.7682960212803845    
    0.9284175530721648        0.7574029579975087    
    0.9429240773389174        0.7466876859857146    
    0.9574306016056700        0.7361430750940336    
    0.9719371258724225        0.7257628399316858    
    0.9864436501391751        0.7155416165417703    
     1.000950174405928        0.7054750000120942    
     1.015456698672680        0.6955595527910422    
     1.029963222939433        0.6857926185026054    
     1.044469747206185        0.6761718127817136    
     1.058976271472938        0.6666947892313931    
     1.073482795739691        0.6573592426709014    
     1.087989320006443        0.6481629062614888    
     1.102495844273196        0.6391035513412235    
     1.117002368539948        0.6301789868076757    
     1.131508892806701        0.6213870585736736    
     1.146015417073453        0.6127256490054754    
     1.160521941340206        0.6041926763640795    
     1.175028465606959        0.5957860942475244    
     1.189534989873711        0.5875038910348698    
     1.204041514140464        0.5793440893324883    
     1.218548038407216        0.5713047454232079    
     1.233054562673969        0.5633839487184883    
     1.247561086940721        0.5555798212141980    
     1.262067611207474        0.5478905169504816    
     1.276574135474227        0.5403142214756691    
     1.291080659740979        0.5328491513148972    
     1.305587184007732        0.5254935534436302    
     1.320093708274484        0.5182457047661368    
     1.334600232541237        0.5111039115994344    
     1.349106756807990        0.5040665091627451    
     1.363613281074742        0.4971318610726340    
     1.378119805341495        0.4902983588441261    
     1.392626329608247        0.4835644213977834    
     1.407132853875000        0.4769284945730531    
     1.421639378141752        0.4703890506478657    
     1.436145902408505        0.4639445878646150    
     1.450652426675257        0.4575936299626928    
     1.465158950942010        0.4513347257175588    
     1.479665475208763        0.4451664484864192    
     1.494171999475515        0.4390873957606356    
     1.508678523742268        0.4330961887249025    
     1.523185048009020        0.4271914718230625    
     1.537691572275773        0.4213719123308498    
     1.552198096542525        0.4156361999354024    
     1.566704620809278        0.4099830463215536    
     1.581211145076031        0.4044111847649899    
     1.595717669342783        0.3989193697322361    
     1.610224193609536        0.3935063764874200    
     1.624730717876288        0.3881710007058342    
     1.639237242143041        0.3829120580942779    
     1.653743766409794        0.3777283840181118    
     1.668250290676546        0.3726188331350607    
     1.682756814943299        0.3675822790356699    
     1.697263339210051        0.3626176138903640    
     1.711769863476804        0.3577237481031124    
     1.726276387743556        0.3528996099716276    
     1.740782912010309        0.3481441453540334    
     1.755289436277061        0.3434563173419314    
     1.769795960543814        0.3388351059398637    
     1.784302484810567        0.3342795077510478    
     1.798809009077319        0.3297885356693198    
     1.813315533344072        0.3253612185772676    
     1.827822057610824        0.3209966010504288    
     1.842328581877577        0.3166937430674887    
     1.856835106144330        0.3124517197264234    
     1.871341630411082        0.3082696209664814    
     1.885848154677835        0.3041465512959266    
     1.900354678944587        0.3000816295254737    
     1.914861203211340        0.2960739885073147    
     1.929367727478092        0.2921227748796557    
     1.943874251744845        0.2882271488166698    
     1.958380776011598        0.2843862837837788    
     1.972887300278350        0.2805993662981660    
     1.987393824545103        0.2768655956944392    
     2.001900348811855        0.2731841838953413    
     2.016406873078608        0.2695543551874086    
     2.030913397345361        0.2659753460014925    
     2.045419921612113        0.2624464046980408    
     2.059926445878866        0.2589667913570453    
     2.074432970145618        0.2555357775725581    
     2.088939494412371        0.2521526462516799    
     2.103446018679124        0.2488166914179187    
     2.117952542945876        0.2455272180188313    
     2.132459067212629        0.2422835417378449    
     2.146965591479381        0.2390849888101607    
     2.161472115746134        0.2359308958426499    
     2.175978640012886        0.2328206096376435    
     2.190485164279639        0.2297534870205189    
     2.204991688546391        0.2267288946709978    
     2.219498212813144        0.2237462089580538    
     2.234004737079896        0.2208048157783453    
     2.248511261346649        0.2179041103980761    
     2.263017785613402        0.2150434972982046    
     2.277524309880154        0.2122223900229050    
     2.292030834146907        0.2094402110311978    
     2.306537358413659        0.2066963915516618    
     2.321043882680412        0.2039903714401520    
     2.335550406947164        0.2013215990404334    
     2.350056931213917        0.1986895310476514    
     2.364563455480670        0.1960936323745644    
     2.379069979747422        0.1935333760204613    
     2.393576504014175        0.1910082429426859    
     2.408083028280927        0.1885177219306947    
     2.422589552547680        0.1860613094825821    
     2.437096076814433        0.1836385096839958    
     2.451602601081185        0.1812488340893852    
     2.466109125347938        0.1788918016055069    
     2.480615649614690        0.1765669383771301    
     2.495122173881443        0.1742737776748701    
     2.509628698148195        0.1720118597851041    
     2.524135222414948        0.1697807319019008    
     2.538641746681701        0.1675799480209122    
     2.553148270948453        0.1654090688351655    
     2.567654795215206        0.1632676616327123    
     2.582161319481958        0.1611553001960764    
     2.596667843748711        0.1590715647034565    
     2.611174368015464        0.1570160416316283    
     2.625680892282216        0.1549883236605059    
     2.640187416548969        0.1529880095793218    
     2.654693940815721        0.1510147041943698    
     2.669200465082474        0.1490680182382876    
     2.683706989349226        0.1471475682808167    
     2.698213513615979        0.1452529766410293    
     2.712720037882732        0.1433838713009541    
     2.727226562149484        0.1415398858205973    
     2.741733086416237        0.1397206592542956    
     2.756239610682989        0.1379258360683932    
     2.770746134949742        0.1361550660601978    
     2.785252659216495        0.1344080042781857    
     2.799759183483247        0.1326843109434363    
     2.814265707749999        0.1309836513722497    
     2.828772232016752        0.1293056958999506    
     2.843278756283504        0.1276501198058137    
     2.857785280550257        0.1260166032391287    
     2.872291804817010        0.1244048311463485    
     2.886798329083762        0.1228144931993134    
     2.901304853350515        0.1212452837245265    
     2.915811377617267        0.1196969016334492    
     2.930317901884020        0.1181690503538271    
     2.944824426150773        0.1166614377619860    
     2.959330950417525        0.1151737761161156    
     2.973837474684278        0.1137057819904975    
     2.988343998951030        0.1122571762106710    
     3.002850523217783        0.1108276837895322    
     3.017357047484535        0.1094170338643188    
     3.031863571751288        0.1080249596385702    
     3.046370096018041        0.1066511983431692    
     3.060876620284793        0.1052954911240074    
     3.075383144551546        0.1039575830018532    
     3.089889668818298        0.1026372228199154    
     3.104396193085051        0.1013341631859804    
     3.118902717351804        0.1000481604153424    
     3.133409241618556        0.9877897447453683E-01
     3.147915765885309        0.9752636892587131E-01
     3.162422290152061        0.9629011087270854E-01
     3.176928814418814        0.9506997090554080E-01
     3.191435338685567        0.9386572304880429E-01
     3.205941862952319        0.9267714470843524E-01
     3.220448387219072        0.9150401662017701E-01
     3.234954911485824        0.9034612279859018E-01
     3.249461435752577        0.8920325048679512E-01
     3.263967960019329        0.8807519010692205E-01
     3.278474484286082        0.8696173521123972E-01
     3.292981008552835        0.8586268243400055E-01
     3.307487532819587        0.8477783144394940E-01
     3.321994057086340        0.8370698489750185E-01
     3.336500581353092        0.8264994839260728E-01
     3.351007105619845        0.8160653042324634E-01
     3.365513629886598        0.8057654233458826E-01
     3.380020154153350        0.7955979827879726E-01
     3.394526678420103        0.7855611517144810E-01
     3.409033202686855        0.7756531264859565E-01
     3.423539726953607        0.7658721302445409E-01
     3.438046251220360        0.7562164124967315E-01
     3.452552775487113        0.7466842487024752E-01
     3.467059299753865        0.7372739398700548E-01
     3.481565824020618        0.7279838121568494E-01
     3.496072348287370        0.7188122164761564E-01
     3.510578872554123        0.7097575281095932E-01
     3.525085396820876        0.7008181463252473E-01
     3.539591921087628        0.6919924940016062E-01
     3.554098445354381        0.6832790172568995E-01
     3.568604969621133        0.6746761850840174E-01
     3.583111493887886        0.6661824889910058E-01
     3.597618018154638        0.6577964426467457E-01
     3.612124542421391        0.6495165815320977E-01
     3.626631066688144        0.6413414625963526E-01
     3.641137590954896        0.6332696639187241E-01
     3.655644115221649        0.6252997843751122E-01
     3.670150639488401        0.6174304433099977E-01
     3.684657163755154        0.6096602802131779E-01
     3.699163688021907        0.6019879544016202E-01
     3.713670212288659        0.5944121447062294E-01
     3.728176736555412        0.5869315491633251E-01
     3.742683260822164        0.5795448847110008E-01
     3.757189785088917        0.5722508868902747E-01
     3.771696309355669        0.5650483095507385E-01
     3.786202833622422        0.5579359245609217E-01
     3.800709357889175        0.5509125215232760E-01
     3.815215882155927        0.5439769074935159E-01
     3.829722406422680        0.5371279067044397E-01
     3.844228930689432        0.5303643602942318E-01
     3.858735454956185        0.5236851260389871E-01
     3.873241979222938        0.5170890780894394E-01
     3.887748503489690        0.5105751067121247E-01
     3.902255027756443        0.5041421180345484E-01
     3.916761552023195        0.4977890337943711E-01
     3.931268076289948        0.4915147910928740E-01
     3.945774600556700        0.4853183421522946E-01
     3.960281124823453        0.4791986540769673E-01
     3.974787649090206        0.4731547086185968E-01
     3.989294173356958        0.4671855019452517E-01
     4.003800697623711        0.4612900444140417E-01
     4.018307221890463        0.4554673603476467E-01
     4.032813746157216        0.4497164878145071E-01
     4.047320270423969        0.4440364784125740E-01
     4.061826794690721        0.4384263970565841E-01
     4.076333318957474        0.4328853217690114E-01
     4.090839843224226        0.4274123434743829E-01
     4.105346367490979        0.4220065657968861E-01
     4.119852891757732        0.4166671048615728E-01
     4.134359416024484        0.4113930890987638E-01
     4.148865940291237        0.4061836590516191E-01
     4.163372464557989        0.4010379671870508E-01
     4.177878988824742        0.3959551777097901E-01
     4.192385513091494        0.3909344663795131E-01
     4.206892037358247        0.3859750203309748E-01
     4.221398561625000        0.3810760378973291E-01
     4.235905085891752        0.3762367284363259E-01
     4.250411610158505        0.3714563121593260E-01
     4.264918134425257        0.3667340199633685E-01
     4.279424658692010        0.3620690932659990E-01
     4.293931182958763        0.3574607838428577E-01
     4.308437707225515        0.3529083536679614E-01
     4.322944231492268        0.3484110747568206E-01
     4.337450755759019        0.3439682290121268E-01
     4.351957280025772        0.3395791080719523E-01
     4.366463804292525        0.3352430131606639E-01
     4.380970328559277        0.3309592549423045E-01
     4.395476852826030        0.3267271533764370E-01
     4.409983377092782        0.3225460375763494E-01
     4.424489901359535        0.3184152456698170E-01
     4.438996425626287        0.3143341246621229E-01
     4.453502949893040        0.3103020303013489E-01
     4.468009474159793        0.3063183269459935E-01
     4.482515998426545        0.3023823874348517E-01
     4.497022522693298        0.2984935929590637E-01
     4.511529046960050        0.2946513329362234E-01
     4.526035571226803        0.2908550048867613E-01
     4.540542095493556        0.2871040143123319E-01
     4.555048619760308        0.2833977745762523E-01
     4.569555144027061        0.2797357067858745E-01
     4.584061668293813        0.2761172396770829E-01
     4.598568192560566        0.2725418095006269E-01
     4.613074716827319        0.2690088599103557E-01
     4.627581241094071        0.2655178418533158E-01
     4.642087765360824        0.2620682134617511E-01
     4.656594289627576        0.2586594399468582E-01
     4.671100813894329        0.2552909934942602E-01
     4.685607338161081        0.2519623531612856E-01
     4.700113862427834        0.2486730047759479E-01
     4.714620386694587        0.2454224408375894E-01
     4.729126910961339        0.2422101604190997E-01
     4.743633435228092        0.2390356690708468E-01
     4.758139959494844        0.2358984787261540E-01
     4.772646483761597        0.2327981076083312E-01
     4.787153008028350        0.2297340801391676E-01
     4.801659532295102        0.2267059268490295E-01
     4.816166056561855        0.2237131842883672E-01
     4.830672580828607        0.2207553949406853E-01
     4.845179105095360        0.2178321071368545E-01
     4.859685629362112        0.2149428749709245E-01
     4.874192153628865        0.2120872582172406E-01
     4.888698677895618        0.2092648222489096E-01
     4.903205202162370        0.2064751379575236E-01
     4.917711726429123        0.2037177816742681E-01
     4.932218250695875        0.2009923350922385E-01
     4.946724774962628        0.1982983851900164E-01
     4.961231299229381        0.1956355241564025E-01
     4.975737823496133        0.1930033493164387E-01
     4.990244347762886        0.1904014630585530E-01
     5.004750872029638        0.1878294727628683E-01
     5.019257396296391        0.1852869907305879E-01
     5.033763920563143        0.1827736341145743E-01
     5.048270444829896        0.1802890248509673E-01
     5.062776969096649        0.1778327895918888E-01
     5.077283493363401        0.1754045596391464E-01
     5.091790017630154        0.1730039708790291E-01
     5.106296541896906        0.1706306637180863E-01
     5.120803066163659        0.1682842830199015E-01
     5.135309590430412        0.1659644780428129E-01
     5.149816114697164        0.1636709023786115E-01
     5.164322638963917        0.1614032138921871E-01
     5.178829163230669        0.1591610746620761E-01
     5.193335687497422        0.1569441509219140E-01
     5.207842211764175        0.1547521130027501E-01
     5.222348736030927        0.1525846352762876E-01
     5.236855260297680        0.1504413960989379E-01
     5.251361784564432        0.1483220777567256E-01
     5.265868308831185        0.1462263664109807E-01
     5.280374833097937        0.1441539520449037E-01
     5.294881357364690        0.1421045284108782E-01
     5.309387881631443        0.1400777929785839E-01
     5.323894405898195        0.1380734468838397E-01
     5.338400930164948        0.1360911948782371E-01
     5.352907454431700        0.1341307452795003E-01
     5.367413978698453        0.1321918099225662E-01
     5.381920502965206        0.1302741041113720E-01
     5.396427027231958        0.1283773465713324E-01
     5.410933551498711        0.1265012594025354E-01
     5.425440075765463        0.1246455680335866E-01
     5.439946600032216        0.1228100011761268E-01
     5.454453124298968        0.1209942907799723E-01
     5.468959648565721        0.1191981719889352E-01
     5.483466172832474        0.1174213830972495E-01
     5.497972697099226        0.1156636655066190E-01
     5.512479221365979        0.1139247636838620E-01
     5.526985745632731        0.1122044251191509E-01
     5.541492269899484        0.1105024002848581E-01
     5.555998794166237        0.1088184425949575E-01
     5.570505318432989        0.1071523083650009E-01
     5.585011842699741        0.1055037567726256E-01
     5.599518366966493        0.1038725498186414E-01
     5.614024891233246        0.1022584522886391E-01
     5.628531415499999        0.1006612317151244E-01
     5.643037939766751        0.9908065834017259E-02
     5.657544464033504        0.9751650507857972E-02
     5.672050988300256        0.9596854748154179E-02
     5.686557512567009        0.9443656370080541E-02
     5.701064036833762        0.9292033445331497E-02
     5.715570561100514        0.9141964298631613E-02
     5.730077085367267        0.8993427504294545E-02
     5.744583609634019        0.8846401882828283E-02
     5.759090133900772        0.8700866497584291E-02
     5.773596658167524        0.8556800651452558E-02
     5.788103182434277        0.8414183883598131E-02
     5.802609706701030        0.8272995966243597E-02
     5.817116230967782        0.8133216901492430E-02
     5.831622755234535        0.7994826918194115E-02
     5.846129279501287        0.7857806468850726E-02
     5.860635803768040        0.7722136226562164E-02
     5.875142328034793        0.7587797082013740E-02
     5.889648852301545        0.7454770140501072E-02
     5.904155376568298        0.7323036718993830E-02
     5.918661900835050        0.7192578343237169E-02
     5.933168425101803        0.7063376744889859E-02
     5.947674949368555        0.6935413858700304E-02
     5.962181473635308        0.6808671819717641E-02
     5.976687997902061        0.6683132960538714E-02
     5.991194522168813        0.6558779808589306E-02
     6.005701046435566        0.6435595083439961E-02
     6.020207570702318        0.6313561694156383E-02
     6.034714094969071        0.6192662736682191E-02
     6.049220619235824        0.6072881491255006E-02
     6.063727143502576        0.5954201419854075E-02
     6.078233667769329        0.5836606163680043E-02
     6.092740192036081        0.5720079540666330E-02
     6.107246716302834        0.5604605543020990E-02
     6.121753240569586        0.5490168334798628E-02
     6.136259764836339        0.5376752249502265E-02
     6.150766289103092        0.5264341787714498E-02
     6.165272813369844        0.5152921614757985E-02
     6.179779337636597        0.5042476558384086E-02
     6.194285861903349        0.4932991606489514E-02
     6.208792386170102        0.4824451904860635E-02
     6.223298910436855        0.4716842754944628E-02
     6.237805434703607        0.4610149611648227E-02
     6.252311958970360        0.4504358081162296E-02
     6.266818483237112        0.4399453918812306E-02
     6.281325007503865        0.4295423026934692E-02
     6.295831531770617        0.4192251452777747E-02
     6.310338056037370        0.4089925386428359E-02
     6.324844580304123        0.3988431158762486E-02
     6.339351104570875        0.3887755239419729E-02
     6.353857628837628        0.3787884234802094E-02
     6.368364153104380        0.3688804886095052E-02
     6.382870677371133        0.3590504067312951E-02
     6.397377201637886        0.3492968783366248E-02
     6.411883725904638        0.3396186168151244E-02
     6.426390250171391        0.3300143482661967E-02
     6.440896774438143        0.3204828113123105E-02
     6.455403298704896        0.3110227569145245E-02
     6.469909822971649        0.3016329481900382E-02
     6.484416347238401        0.2923121602318515E-02
     6.498922871505154        0.2830591799304459E-02
     6.513429395771906        0.2738728057974723E-02
     6.527935920038659        0.2647518477914203E-02
     6.542442444305411        0.2556951271452518E-02
     6.556948968572164        0.2467014761986232E-02
     6.571455492838917        0.2377697387559041E-02
     6.585962017105669        0.2288987835753399E-02
     6.600468541372422        0.2200876036721732E-02
     6.614975065639174        0.2113356229083405E-02
     6.629481589905927        0.2026432184132904E-02
     6.643988114172680        0.1940123059511815E-02
     6.658494638439432        0.1854468088177379E-02
     6.673001162706185        0.1769529096741494E-02
     6.687507686972937        0.1685390716680127E-02
     6.702014211239690        0.1602158673125793E-02
     6.716520735506442        0.1519956720893066E-02
     6.731027259773195        0.1438922782201021E-02
     6.745533784039948        0.1359204739980092E-02
     6.760040308306700        0.1280956221373666E-02
     6.774546832573453        0.1204332598540307E-02
     6.789053356840205        0.1129487348106655E-02
     6.803559881106958        0.1056568846941930E-02
     6.818066405373710        0.9857176369477930E-03
     6.832572929640462        0.9170641611158113E-03
     6.847079453907215        0.8507269533861840E-03
     6.861585978173967        0.7868112527717403E-03
     6.876092502440720        0.7254080054570352E-03
     6.890599026707473        0.6665932154420759E-03
     6.905105550974225        0.6104276035563211E-03
     6.919612075240978        0.5569565354744064E-03
     6.934118599507730        0.5062101811278063E-03
     6.948625123774483        0.4582038702246645E-03
     6.963131648041236        0.4129386111842788E-03
     6.977638172307988        0.3704017434762535E-03
     6.992144696574741        0.3305676959910893E-03
     7.006651220841493        0.2933988265629160E-03
     7.021157745108246        0.2588463200284989E-03
     7.035664269374998        0.2268511241517717E-03
     7.050170793641751        0.1973449042484747E-03
     7.064677317908504        0.1702509982193922E-03
     7.079183842175256        0.1454853536080911E-03
     7.093690366442009        0.1229574266123283E-03
     7.108196890708761        0.1025710184633050E-03
     7.122703414975514        0.8422501467942949E-04
     7.137209939242267        0.6781397173368693E-04
     7.151716463509019        0.5322845012756400E-04
     7.166222987775772        0.4035488730068815E-04
     7.180729512042524        0.2907453324886341E-04
     7.195236036309277        0.1926016943286231E-04
     7.209742560576029        0.1076649194570025E-04
     7.224249084842782        0.3393297681959969E-05
     7.238755609109535         0.000000000000000    
  0  1  2  0  0.000000   #orbital l, n, z, is_polarized, population
 500    0.8105230235178364E-02     4.044509887354004     # npts, delta, cutoff
     0.000000000000000         2.008209808627756    
    0.8105230235178364E-02     2.008012721924280    
    0.1621046047035673E-01     2.007432594666767    
    0.2431569070553509E-01     2.006466553507959    
    0.3242092094071346E-01     2.005115845354759    
    0.4052615117589183E-01     2.003382209470493    
    0.4863138141107019E-01     2.001267869055882    
    0.5673661164624855E-01     1.998775521392458    
    0.6484184188142691E-01     1.995908326071081    
    0.7294707211660528E-01     1.992669891343643    
    0.8105230235178365E-01     1.989064258701441    
    0.8915753258696200E-01     1.985095885807102    
    0.9726276282214037E-01     1.980769627922580    
    0.1053679930573187         1.976090717987838    
    0.1134732232924971         1.971064745515046    
    0.1215784535276755         1.965697634471733    
    0.1296836837628538         1.959995620332522    
    0.1377889139980322         1.953965226483967    
    0.1458941442332106         1.947613240169554    
    0.1539993744683889         1.940946688162821    
    0.1621046047035673         1.933972812355338    
    0.1702098349387456         1.926699045443300    
    0.1783150651739240         1.919132986891618    
    0.1864202954091024         1.911282379347680    
    0.1945255256442807         1.903155085668583    
    0.2026307558794591         1.894759066715676    
    0.2107359861146375         1.886102360058711    
    0.2188412163498158         1.877193059719342    
    0.2269464465849942         1.868039297069251    