<preamble>

<basis_specs>
===============================================================================
Si                   Z=  14    Mass=  28.090        Charge= 0.17977+309
Lmxo=2 Lmxkb= 2    BasisType=split      Semic=F
L=0  Nsemic=0  Cnfigmx=3
          i=1  nzeta=2  polorb=0  (3s)
            splnorm:   0.15000    
               vcte:    40.000    
               rinn:    4.4125    
               qcoe:    0.0000    
               qyuk:    0.0000    
               qwid:   0.10000E-01
                rcs:    4.8978      3.6477    
            lambdas:    1.0000      1.0000    
L=1  Nsemic=0  Cnfigmx=3
          i=1  nzeta=2  polorb=1  (3p)  (to be polarized perturbatively)
            splnorm:   0.15000    
               vcte:    40.000    
               rinn:    5.4785    
               qcoe:    0.0000    
               qyuk:    0.0000    
               qwid:   0.10000E-01
                rcs:    6.0811      4.5752    
            lambdas:    1.0000      1.0000    
L=2  Nsemic=0  Cnfigmx=3
          i=1  nzeta=0  polorb=0  (3d)  (perturbative polarization orbital) (from 3p)
-------------------------------------------------------------------------------
L=0  Nkbl=1  erefs: 0.17977+309
L=1  Nkbl=1  erefs: 0.17977+309
L=2  Nkbl=1  erefs: 0.17977+309
===============================================================================
</basis_specs>

<pseudopotential_header>
 Si pb nrl pcec
 ONCVPSP-3.2017-10-31Hamann's oncvpsp                        
 3s 2.00  r= 1.60/3p 2.00  r= 1.72/3d 0.00  r= 1.92/                    3s:3p:
</pseudopotential_header>
</preamble>
Si                            # Symbol
Si                            # Label
   14                         # Atomic number
     4.00000000000                             # Valence charge
     28.0900000000        # Mass 
     14.2535667225        # Self energy 
   2   5                      # Lmax for basis, no. of nl orbitals 
   2   6                      # Lmax for projectors, no. of nl KB projectors
# PAOs:__________________________
  0  3  1  0  2.000000   #orbital l, n, z, is_polarized, population
 500    0.9815270173756991E-02     4.897819816704739     # npts, delta, cutoff
     0.000000000000000        0.1250756153631266    
    0.9815270173756991E-02    0.1251255355768001    
    0.1963054034751398E-01    0.1252777906182206    
    0.2944581052127097E-01    0.1255315389090050    
    0.3926108069502796E-01    0.1258867630502243    
    0.4907635086878495E-01    0.1263434366136222    
    0.5889162104254195E-01    0.1269015217141177    
    0.6870689121629893E-01    0.1275609661052649    
    0.7852216139005593E-01    0.1283216997314899    
    0.8833743156381292E-01    0.1291836307730751    
    0.9815270173756990E-01    0.1301466412364247    
    0.1079679719113269        0.1312105821502316    
    0.1177832420850839        0.1323752684341335    
    0.1275985122588409        0.1336404735112142    
    0.1374137824325979        0.1350059237394125    
    0.1472290526063549        0.1364712927395774    
    0.1570443227801119        0.1380361956995032    
    0.1668595929538688        0.1397001837338146    
    0.1766748631276258        0.1414627383790212    
    0.1864901333013828        0.1433232663014409    
    0.1963054034751398        0.1452810942930365    
    0.2061206736488968        0.1473354646265443    
    0.2159359438226538        0.1494855308366508    
    0.2257512139964108        0.1517303539884855    
    0.2355664841701678        0.1540688994883696    
    0.2453817543439248        0.1565000344847393    
    0.2551970245176818        0.1590225258995047    
    0.2650122946914387        0.1616350391219320    
    0.2748275648651957        0.1643361373885632    
    0.2846428350389527        0.1671242818638312    
    0.2944581052127097        0.1699978324270049    
    0.3042733753864667        0.1729550491620399    
    0.3140886455602237        0.1759940945379366    
    0.3239039157339807        0.1791130362584482    
    0.3337191859077377        0.1823098507515274    
    0.3435344560814947        0.1855824272609330    
    0.3533497262552517        0.1889285724949433    
    0.3631649964290087        0.1923460157803498    
    0.3729802666027656        0.1958324146638407    
    0.3827955367765226        0.1993853608976520    
    0.3926108069502796        0.2030023867420299    
    0.4024260771240366        0.2066809715136241    
    0.4122413472977936        0.2104185483065476    
    0.4220566174715506        0.2142125108114322    
    0.4318718876453076        0.2180602201574264    
    0.4416871578190646        0.2219590117027703    
    0.4515024279928216        0.2259062017012442    
    0.4613176981665786        0.2298990937744571    
    0.4711329683403356        0.2339349851235453    
    0.4809482385140925        0.2380111724183537    
    0.4907635086878495        0.2421249573074868    
    0.5005787788616065        0.2462736514986837    
    0.5103940490353636        0.2504545813656560    
    0.5202093192091205        0.2546650920448533    
    0.5300245893828774        0.2589025509932706    
    0.5398398595566345        0.2631643509865242    
    0.5496551297303914        0.2674479125446718    
    0.5594703999041485        0.2717506857816749    
    0.5692856700779054        0.2760701516827084    
    0.5791009402516625        0.2804038228218892    
    0.5889162104254194        0.2847492435408102    
    0.5987314805991765        0.2891039896161010    
    0.6085467507729334        0.2934656674512550    
    0.6183620209466905        0.2978319128346302    
    0.6281772911204474        0.3022003893114824    
    0.6379925612942043        0.3065687862230702    
    0.6478078314679614        0.3109348164702876    
    0.6576231016417183        0.3152962140628223    
    0.6674383718154754        0.3196507315174080    
    0.6772536419892323        0.3239961371704818    
    0.6870689121629894        0.3283302124711889    
    0.6968841823367463        0.3326507493204395    
    0.7066994525105034        0.3369555475204999    
    0.7165147226842603        0.3412424123973634    
    0.7263299928580174        0.3455091526551304    
    0.7361452630317743        0.3497535785176335    
    0.7459605332055312        0.3539735002077554    
    0.7557758033792883        0.3581667268095202    
    0.7655910735530452        0.3623310655517833    
    0.7754063437268023        0.3664643215456993    
    0.7852216139005592        0.3705642980010705    
    0.7950368840743163        0.3746287969390255    
    0.8048521542480732        0.3786556204108638    
    0.8146674244218303        0.3826425722249155    
    0.8244826945955872        0.3865874601754032    
    0.8342979647693443        0.3904880987594329    
    0.8441132349431012        0.3943423123606475    
    0.8539285051168581        0.3981479388707976    
    0.8637437752906152        0.4019028337134694    
    0.8735590454643721        0.4056048742280086    
    0.8833743156381292        0.4092519643657582    
    0.8931895858118861        0.4128420396457215    
    0.9030048559856432        0.4163730723123845    
    0.9128201261594001        0.4198430766349543    
    0.9226353963331572        0.4232501142846062    
    0.9324506665069141        0.4265922997245738    
    0.9422659366806712        0.4298678055471368    
    0.9520812068544281        0.4330748676916512    
    0.9618964770281850        0.4362117904788250    
    0.9717117472019421        0.4392769513984342    
    0.9815270173756990        0.4422688055905100    
    0.9913422875494561        0.4451858899637747    
     1.001157557723213        0.4480268268995601    
     1.010972827896970        0.4507903274947134    
     1.020788098070727        0.4534751943029117    
     1.030603368244484        0.4560803235401875    
     1.040418638418241        0.4586047067274498    
     1.050233908591998        0.4610474317502249    
     1.060049178765755        0.4634076833232156    
     1.069864448939512        0.4656847428552571    
     1.079679719113269        0.4678779877180170    
     1.089494989287026        0.4699868899295797    
     1.099310259460783        0.4720110142717052    
     1.109125529634540        0.4739500158669316    
     1.118940799808297        0.4758036372487423    
     1.128756069982054        0.4775717049645491    
     1.138571340155811        0.4792541257572573    
     1.148386610329568        0.4808508823765741    
     1.158201880503325        0.4823620290758803    
     1.168017150677082        0.4837876868544022    
     1.177832420850839        0.4851280385075447    
     1.187647691024596        0.4863833235503972    
     1.197462961198353        0.4875538330808074    
     1.207278231372110        0.4886399046488622    
     1.217093501545867        0.4896419171991035    
     1.226908771719624        0.4905602861504589    
     1.236724041893381        0.4913954586765831    
     1.246539312067138        0.4921479092462238    
     1.256354582240895        0.4928181354793266    
     1.266169852414652        0.4934066543699352    
     1.275985122588409        0.4939139989216507    
     1.285800392762166        0.4943407152354408    
     1.295615662935923        0.4946873600831881    
     1.305430933109680        0.4949544989935576    
     1.315246203283437        0.4951427048693746    
     1.325061473457194        0.4952525571484699    
     1.334876743630951        0.4952846415123466    
     1.344692013804708        0.4952395501391970    
     1.354507283978465        0.4951178824907548    
     1.364322554152222        0.4949202466146161    
     1.374137824325979        0.4946472609369110    
     1.383953094499736        0.4942995565136022    
     1.393768364673493        0.4938777797019733    
     1.403583634847250        0.4933825952089688    
     1.413398905021007        0.4928146894672225    
     1.423214175194764        0.4921747742856723    
     1.433029445368521        0.4914635907180615    
     1.442844715542278        0.4906819130893352    
     1.452659985716035        0.4898305531185905    
     1.462475255889792        0.4889103640753169    
     1.472290526063549        0.4879222449059607    
     1.482105796237306        0.4868671442678876    
     1.491921066411062        0.4857460644095184    
     1.501736336584820        0.4845600648372413    
     1.511551606758577        0.4833102657131486    
     1.521366876932334        0.4819978509305836    
     1.531182147106090        0.4806240708197674    
     1.540997417279848        0.4791902444386986    
     1.550812687453605        0.4776977612482305    
     1.560627957627362        0.4761481031063409    
     1.570443227801118        0.4745427861102058    
     1.580258497974875        0.4728834137980535    
     1.590073768148633        0.4711716669623054    
     1.599889038322389        0.4694093054678045    
     1.609704308496146        0.4675981499633962    
     1.619519578669903        0.4657400457718553    
     1.629334848843661        0.4638368250836685    
     1.639150119017417        0.4618902764128550    
     1.648965389191174        0.4599021371266125    
     1.658780659364931        0.4578741012750994    
     1.668595929538689        0.4558078225149961    
     1.678411199712445        0.4537049131893975    
     1.688226469886202        0.4515669447645929    
     1.698041740059959        0.4493954487418594    
     1.707857010233716        0.4471919174995300    
     1.717672280407473        0.4449578051812088    
     1.727487550581230        0.4426945283842907    
     1.737302820754987        0.4404034669549322    
     1.747118090928744        0.4380859648392817    
     1.756933361102501        0.4357433307165407    
     1.766748631276258        0.4333768387319450    
     1.776563901450015        0.4309877293723580    
     1.786379171623772        0.4285772101111356    
     1.796194441797529        0.4261464561078670    
     1.806009711971286        0.4236966110628234    
     1.815824982145043        0.4212287877862361    
     1.825640252318800        0.4187440688454018    
     1.835455522492557        0.4162435073128659    
     1.845270792666314        0.4137281274137551    
     1.855086062840071        0.4111989251526862    
     1.864901333013828        0.4086568689462888    
     1.874716603187585        0.4061029002453204    
     1.884531873361342        0.4035379341413760    
     1.894347143535099        0.4009628599601363    
     1.904162413708856        0.3983785418431905    
     1.913977683882613        0.3957858193182832    
     1.923792954056370        0.3931855078576696    
     1.933608224230127        0.3905783994251012    
     1.943423494403884        0.3879652630115644    
     1.953238764577641        0.3853468451600456    
     1.963054034751398        0.3827238704795546    
     1.972869304925155        0.3800970421486070    
     1.982684575098912        0.3774670424084388    
     1.992499845272669        0.3748345330461019    
     2.002315115446426        0.3722001558677126    
     2.012130385620183        0.3695645331620509    
     2.021945655793940        0.3669282681547100    
     2.031760925967697        0.3642919454530039    
     2.041576196141454        0.3616561314818106    
     2.051391466315211        0.3590213749105417    
     2.061206736488968        0.3563882070714402    
     2.071022006662725        0.3537571423693628    
     2.080837276836482        0.3511286786832081    
     2.090652547010239        0.3485032977591969    
     2.100467817183996        0.3458814655960933    
     2.110283087357753        0.3432636328225987    
     2.120098357531510        0.3406502350670237    
     2.129913627705267        0.3380416933193615    
     2.139728897879024        0.3354384142859879    
     2.149544168052781        0.3328407907370121    
     2.159359438226538        0.3302492018465005    
     2.169174708400295        0.3276640135256955    
     2.178989978574052        0.3250855787492583    
     2.188805248747809        0.3225142378748281    
     2.198620518921566        0.3199503189558628    
     2.208435789095323        0.3173941380479290    
     2.218251059269080        0.3148459995086477    
     2.228066329442837        0.3123061962912340    
     2.237881599616594        0.3097750102318966    
     2.247696869790351        0.3072527123311677    
     2.257512139964108        0.3047395630291463    
     2.267327410137865        0.3022358124749985    
     2.277142680311622        0.2997417007906162    
     2.286957950485379        0.2972574583285633    
     2.296773220659136        0.2947833059245654    
     2.306588490832893        0.2923194551444254    
     2.316403761006650        0.2898661085255861    
     2.326219031180407        0.2874234598134863    
     2.336034301354164        0.2849916941926247    
     2.345849571527921        0.2825709885126046    
     2.355664841701678        0.2801615115092067    
     2.365480111875435        0.2777634240204452    
     2.375295382049192        0.2753768791979266    
     2.385110652222949        0.2730020227134536    
     2.394925922396706        0.2706389929609033    
     2.404741192570463        0.2682879212536769    
     2.414556462744220        0.2659489320176325    
     2.424371732917977        0.2636221429795597    
     2.434187003091734        0.2613076653514876    
     2.444002273265490        0.2590056040107027    
     2.453817543439248        0.2567160576755837    
     2.463632813613005        0.2544391190774876    
     2.473448083786762        0.2521748751285944    
     2.483263353960519        0.2499234070858165    
     2.493078624134276        0.2476847907109709    
     2.502893894308033        0.2454590964271522    
     2.512709164481790        0.2432463894714005    
     2.522524434655546        0.2410467300438427    
     2.532339704829304        0.2388601734532671    
     2.542154975003061        0.2366867702592134    
     2.551970245176817        0.2345265664107327    
     2.561785515350575        0.2323796033818000    
     2.571600785524331        0.2302459183034647    
     2.581416055698089        0.2281255440928483    
     2.591231325871846        0.2260185095790112    
     2.601046596045602        0.2239248396257667    
     2.610861866219360        0.2218445552515127    
     2.620677136393117        0.2197776737461382    
     2.630492406566873        0.2177242087850761    
     2.640307676740631        0.2156841705405424    
     2.650122946914387        0.2136575657900340    
     2.659938217088144        0.2116443980221566    
     2.669753487261902        0.2096446675398259    
     2.679568757435658        0.2076583715608837    
     2.689384027609416        0.2056855043162215    
     2.699199297783172        0.2037260571454722    
     2.709014567956929        0.2017800185902329    
     2.718829838130687        0.1998473744849762    
     2.728645108304443        0.1979281080457142    
     2.738460378478200        0.1960221999563175    
     2.748275648651958        0.1941296284526848    
     2.758090918825714        0.1922503694048075    
     2.767906188999471        0.1903843963966769    
     2.777721459173228        0.1885316808041463    
     2.787536729346985        0.1866921918708171    
     2.797351999520743        0.1848658967819945    
     2.807167269694499        0.1830527607366321    
     2.816982539868256        0.1812527470174599    
     2.826797810042013        0.1794658170593625    
     2.836613080215770        0.1776919305158358    
     2.846428350389527        0.1759310453237610    
     2.856243620563284        0.1741831177665124    
     2.866058890737041        0.1724481025353800    
     2.875874160910798        0.1707259527893172    
     2.885689431084555        0.1690166202131365    
     2.895504701258312        0.1673200550742507    
     2.905319971432069        0.1656362062777326    
     2.915135241605826        0.1639650214199912    
     2.924950511779583        0.1623064468410272    
     2.934765781953340        0.1606604276752626    
     2.944581052127097        0.1590269079009511    
     2.954396322300854        0.1574058303882810    
     2.964211592474611        0.1557971369462480    
     2.974026862648368        0.1542007683681156    
     2.983842132822125        0.1526166644757001    
     2.993657402995882        0.1510447641624458    
     3.003472673169639        0.1494850054353362    
     3.013287943343396        0.1479373254555703    
     3.023103213517153        0.1464016605781622    
     3.032918483690910        0.1448779463904710    
     3.042733753864667        0.1433661177496027    
     3.052549024038424        0.1418661088187742    
     3.062364294212181        0.1403778531026629    
     3.072179564385938        0.1389012834818029    
     3.081994834559695        0.1374363322459332    
     3.091810104733452        0.1359829311264421    
     3.101625374907209        0.1345410113278833    
     3.111440645080966        0.1331105035586063    
     3.121255915254723        0.1316913380604723    
     3.131071185428480        0.1302834446377377    
     3.140886455602237        0.1288867526851039    
     3.150701725775994        0.1275011912149501    
     3.160516995949751        0.1261266888837659    
     3.170332266123508        0.1247631740178178    
     3.180147536297265        0.1234105746380595    
     3.189962806471022        0.1220688184843095    
     3.199778076644779        0.1207378330387097    
     3.209593346818536        0.1194175455484928    
     3.219408616992293        0.1181078830480505    
     3.229223887166050        0.1168087723803631    
     3.239039157339807        0.1155201402177719    
     3.248854427513564        0.1142419130821275    
     3.258669697687321        0.1129740173642968    
     3.268484967861078        0.1117163793431155    
     3.278300238034835        0.1104689252037334    
     3.288115508208592        0.1092315810554034    
     3.297930778382349        0.1080042729486799    
     3.307746048556106        0.1067869268921349    
     3.317561318729863        0.1055794688685191    
     3.327376588903620        0.1043818248504214    
     3.337191859077377        0.1031939208153894    
     3.347007129251134        0.1020156827606301    
     3.356822399424891        0.1008470367171983    
     3.366637669598648        0.9968790876374170E-01
     3.376452939772405        0.9853822503975125E-01
     3.386268209946162        0.9739791175843937E-01
     3.396083480119919        0.9626689521915789E-01
     3.405898750293676        0.9514510181941359E-01
     3.415714020467433        0.9403245806644045E-01
     3.425529290641190        0.9292889058843061E-01
     3.435344560814947        0.9183432614536076E-01
     3.445159830988704        0.9074869163944736E-01
     3.454975101162461        0.8967191412521691E-01
     3.464790371336218        0.8860392081924348E-01
     3.474605641509975        0.8754463910954682E-01
     3.484420911683732        0.8649399656464278E-01
     3.494236181857489        0.8545192094225930E-01
     3.504051452031246        0.8441834019773156E-01
     3.513866722205003        0.8339318249211461E-01
     3.523681992378759        0.8237637619996717E-01
     3.533497262552517        0.8136784991685118E-01
     3.543312532726274        0.8036753246652224E-01
     3.553127802900031        0.7937535290787805E-01
     3.562943073073788        0.7839124054160931E-01
     3.572758343247544        0.7741512491659501E-01
     3.582573613421302        0.7644693583602029E-01
     3.592388883595059        0.7548660336327034E-01
     3.602204153768815        0.7453405782756416E-01
     3.612019423942573        0.7358922982935358E-01
     3.621834694116330        0.7265205024548378E-01
     3.631649964290086        0.7172245023413117E-01
     3.641465234463844        0.7080036123952710E-01
     3.651280504637600        0.6988571499645846E-01
     3.661095774811358        0.6897844353456400E-01
     3.670911044985115        0.6807847918242163E-01
     3.680726315158871        0.6718575457144482E-01
     3.690541585332629        0.6630020263958256E-01
     3.700356855506385        0.6542175663483267E-01
     3.710172125680142        0.6455035011856869E-01
     3.719987395853900        0.6368591696869309E-01
     3.729802666027656        0.6282839138261664E-01
     3.739617936201413        0.6197770788006622E-01
     3.749433206375171        0.6113380130573136E-01
     3.759248476548927        0.6029660683175026E-01
     3.769063746722685        0.5946605996003869E-01
     3.778879016896441        0.5864209652446978E-01
     3.788694287070198        0.5782465269290526E-01
     3.798509557243956        0.5701366496908290E-01
     3.808324827417712        0.5620907019436593E-01
     3.818140097591469        0.5541080554935500E-01
     3.827955367765226        0.5461880855536921E-01
     3.837770637938983        0.5383301707579875E-01
     3.847585908112740        0.5305336931733077E-01
     3.857401178286497        0.5227980383105609E-01
     3.867216448460254        0.5151225951345628E-01
     3.877031718634011        0.5075067560727582E-01
     3.886846988807768        0.4999499170228311E-01
     3.896662258981525        0.4924514773592054E-01
     3.906477529155282        0.4850108399385167E-01
     3.916292799329039        0.4776274111040475E-01
     3.926108069502796        0.4703006006891569E-01
     3.935923339676553        0.4630298220197317E-01
     3.945738609850310        0.4558144919157101E-01
     3.955553880024067        0.4486540306916796E-01
     3.965369150197824        0.4415478621565921E-01
     3.975184420371581        0.4344954136126179E-01
     3.984999690545338        0.4274961158531165E-01
     3.994814960719095        0.4205494031598424E-01
     4.004630230892852        0.4136547132993439E-01
     4.014445501066609        0.4068114875185822E-01
     4.024260771240366        0.4000191705398203E-01
     4.034076041414123        0.3932772105547454E-01
     4.043891311587880        0.3865850592179484E-01
     4.053706581761637        0.3799421716396763E-01
     4.063521851935394        0.3733480063779426E-01
     4.073337122109151        0.3668020254300015E-01
     4.083152392282908        0.3603036942231645E-01
     4.092967662456665        0.3538524816050622E-01
     4.102782932630422        0.3474478598332881E-01
     4.112598202804179        0.3410893045644898E-01
     4.122413472977936        0.3347762948429023E-01
     4.132228743151693        0.3285083130883788E-01
     4.142044013325450        0.3222848450838641E-01
     4.151859283499207        0.3161053799623997E-01
     4.161674553672964        0.3099694101936409E-01
     4.171489823846721        0.3038764315698923E-01
     4.181305094020478        0.2978259431917526E-01
     4.191120364194235        0.2918174474532504E-01
     4.200935634367992        0.2858504500265879E-01
     4.210750904541749        0.2799244598464877E-01
     4.220566174715506        0.2740389890941180E-01
     4.230381444889263        0.2681935531807318E-01
     4.240196715063020        0.2623876707308184E-01
     4.250011985236777        0.2566208635649577E-01
     4.259827255410534        0.2508926566823515E-01
     4.269642525584291        0.2452025782429697E-01
     4.279457795758048        0.2395501595495046E-01
     4.289273065931805        0.2339349350288985E-01
     4.299088336105562        0.2283564422136086E-01
     4.308903606279319        0.2228142217226191E-01
     4.318718876453076        0.2173078172421468E-01
     4.328534146626833        0.2118367755061593E-01
     4.338349416800590        0.2064006462766052E-01
     4.348164686974346        0.2009989823233549E-01
     4.357979957148104        0.1956313394039721E-01
     4.367795227321861        0.1902972762432550E-01
     4.377610497495618        0.1849963545125533E-01
     4.387425767669375        0.1797281388089689E-01
     4.397241037843131        0.1744921966342274E-01
     4.407056308016889        0.1692880983734530E-01
     4.416871578190646        0.1641154172737641E-01
     4.426686848364403        0.1589737294226692E-01
     4.436502118538160        0.1538626137264572E-01
     4.446317388711917        0.1487816519158085E-01
     4.456132658885673        0.1437304300925228E-01
     4.465947929059431        0.1387085578051244E-01
     4.475763199233188        0.1337157519611829E-01
     4.485578469406945        0.1287520202207352E-01
     4.495393739580702        0.1238179081643531E-01
     4.505209009754458        0.1189147333837245E-01
     4.515024279928216        0.1140447466021348E-01
     4.524839550101973        0.1092111976641315E-01
     4.534654820275730        0.1044183130876282E-01
     4.544470090449487        0.9967120553478941E-02
     4.554285360623243        0.9497573839395765E-02
     4.564100630797000        0.9033836587530337E-02
     4.573915900970758        0.8576596446769657E-02
     4.583731171144515        0.8126566697443403E-02
     4.593546441318272        0.7684470648307839E-02
     4.603361711492028        0.7251027465183089E-02
     4.613176981665785        0.6826939655180852E-02
     4.622992251839543        0.6412882286206968E-02
     4.632807522013300        0.6009493921457571E-02
     4.642622792187057        0.5617369189219981E-02
     4.652438062360813        0.5237052872878763E-02
     4.662253332534570        0.4869035386869473E-02
     4.672068602708327        0.4513749498394975E-02
     4.681883872882085        0.4171568154433922E-02
     4.691699143055842        0.3842803278741921E-02
     4.701514413229599        0.3527705410906958E-02
     4.711329683403355        0.3226464065340823E-02
     4.721144953577112        0.2939208707421450E-02
     4.730960223750870        0.2666010236251275E-02
     4.740775493924627        0.2406882885272926E-02
     4.750590764098384        0.2161786452691132E-02
     4.760406034272140        0.1930628779788594E-02
     4.770221304445897        0.1713268397834560E-02
     4.780036574619654        0.1509517263316171E-02
     4.789851844793412        0.1319143494733725E-02
     4.799667114967169        0.1141874008675103E-02
     4.809482385140925        0.9773969213587093E-03
     4.819297655314682        0.8253635206416353E-03
     4.829112925488439        0.6853894935234344E-03
     4.838928195662197        0.5570548493844693E-03
     4.848743465835954        0.4399014463242370E-03
     4.858558736009710        0.3334257582122756E-03
     4.868374006183467        0.2370610932472866E-03
     4.878189276357224        0.1501324200017832E-03
     4.888004546530981        0.7171966995710059E-04
     4.897819816704739         0.000000000000000    
  0  3  2  0  0.000000   #orbital l, n, z, is_polarized, population
 500    0.7309985438135378E-02     3.647682733629553     # npts, delta, cutoff
     0.000000000000000       -0.2558342804928320    
    0.7309985438135378E-02   -0.2557719449489567    
    0.1461997087627076E-01   -0.2555793826118942    
    0.2192995631440613E-01   -0.2552584508452915    
    0.2923994175254151E-01   -0.2548091614607577    
    0.3654992719067689E-01   -0.2542315311215617    
    0.4385991262881227E-01   -0.2535255826465376    
    0.5116989806694764E-01   -0.2526913461911654    
    0.5847988350508302E-01   -0.2517288606146384    
    0.6578986894321839E-01   -0.2506381750577826    
    0.7309985438135377E-01   -0.2494193507267784    
    0.8040983981948915E-01   -0.2480724628708819    
    0.8771982525762453E-01   -0.2465976029395616    
    0.9502981069575991E-01   -0.2449948809026701    
    0.1023397961338953       -0.2432644277158658    
    0.1096497815720307       -0.2414063979123062    
    0.1169597670101660       -0.2394209723006195    
    0.1242697524483014       -0.2373083607483100    
    0.1315797378864368       -0.2350688050290663    
    0.1388897233245722       -0.2327025817119108    
    0.1461997087627075       -0.2302100050697757    
    0.1535096942008429       -0.2275914299849020    