<preamble>

<basis_specs>
===============================================================================
C                    Z=   6    Mass=  12.011        Charge= 0.17977+309
Lmxo=2 Lmxkb= 1    BasisType=split      Semic=F
L=0  Nsemic=0  Cnfigmx=2
          i=1  nzeta=2  polorb=0  (2s)
            splnorm:   0.15000    
               vcte:    40.000    
               rinn:    3.6510    
               qcoe:    0.0000    
               qyuk:    0.0000    
               qwid:   0.10000E-01
                rcs:    4.0567      2.8932    
            lambdas:    1.0000      1.0000    
L=1  Nsemic=0  Cnfigmx=2
          i=1  nzeta=2  polorb=1  (2p)  (to be polarized perturbatively)
            splnorm:   0.15000    
               vcte:    40.000    
               rinn:    4.3119    
               qcoe:    0.0000    
               qyuk:    0.0000    
               qwid:   0.10000E-01
                rcs:    4.7910      3.4038    
            lambdas:    1.0000      1.0000    
L=2  Nsemic=0  Cnfigmx=3
          i=1  nzeta=0  polorb=0  (3d)  (perturbative polarization orbital) (from 2p)
-------------------------------------------------------------------------------
L=0  Nkbl=1  erefs: 0.17977+309
L=1  Nkbl=1  erefs: 0.17977+309
===============================================================================
</basis_specs>

<pseudopotential_header>
 C  pb nrl pcec
 ONCVPSP-3.2017-10-31Hamann's oncvpsp                        
 2s 2.00  r= 1.20/2p 2.00  r= 1.26/                                     2s:2p:
</pseudopotential_header>
</preamble>
C                             # Symbol
C                             # Label
    6                         # Atomic number
     4.00000000000                             # Valence charge
     12.0110000000        # Mass 
     20.7385030328        # Self energy 
   2   5                      # Lmax for basis, no. of nl orbitals 
   1   4                      # Lmax for projectors, no. of nl KB projectors
# PAOs:__________________________
  0  2  1  0  2.000000   #orbital l, n, z, is_polarized, population
 500    0.8129642646431956E-02     4.056691680569546     # npts, delta, cutoff
     0.000000000000000        0.3759668386682815    
    0.8129642646431956E-02    0.3761063578080012    
    0.1625928529286391E-01    0.3765322250276575    
    0.2438892793929587E-01    0.3772413534893208    
    0.3251857058572782E-01    0.3782327653001988    
    0.4064821323215978E-01    0.3795050949601992    
    0.4877785587859174E-01    0.3810565914642842    
    0.5690749852502369E-01    0.3828851215804471    
    0.6503714117145565E-01    0.3849881739087410    
    0.7316678381788760E-01    0.3873628636674105    
    0.8129642646431956E-01    0.3900059381845088    
    0.8942606911075152E-01    0.3929137830777460    
    0.9755571175718347E-01    0.3960824291050833    
    0.1056853544036154        0.3995075596673006    
    0.1138149970500474        0.4031845189422985    
    0.1219446396964793        0.4071083206293533    
    0.1300742823429113        0.4112736572800855    
    0.1382039249893433        0.4156749101914857    
    0.1463335676357752        0.4203061598350440    
    0.1544632102822072        0.4251611967947778    
    0.1625928529286391        0.4302335331858776    
    0.1707224955750711        0.4355164145246019    
    0.1788521382215030        0.4410028320192052    
    0.1869817808679350        0.4466855352508247    
    0.1951114235143669        0.4525570452125734    
    0.2032410661607989        0.4586096676744982    
    0.2113707088072309        0.4648355068415730    
    0.2195003514536628        0.4712264792715330    
    0.2276299941000948        0.4777743280191059    
    0.2357596367465267        0.4844706369730242    
    0.2438892793929587        0.4913068453521897    
    0.2520189220393906        0.4982742623273974    
    0.2601485646858226        0.5053640817352122    
    0.2682782073322545        0.5125673968508500    
    0.2764078499786865        0.5198752151872754    
    0.2845374926251185        0.5272784732882049    
    0.2926671352715504        0.5347680514832297    
    0.3007967779179824        0.5423347885739205    
    0.3089264205644143        0.5499694964204948    
    0.3170560632108463        0.5576629743993990    
    0.3251857058572782        0.5654060237030589    
    0.3333153485037102        0.5731894614539297    
    0.3414449911501422        0.5810041346060284    
    0.3495746337965741        0.5888409336081115    
    0.3577042764430061        0.5966908058038289    
    0.3658339190894380        0.6045447685452490    
    0.3739635617358700        0.6123939219974046    
    0.3820932043823019        0.6202294616126587    
    0.3902228470287339        0.6280426902549693    
    0.3983524896751658        0.6358250299553687    
    0.4064821323215978        0.6435680332812774    
    0.4146117749680298        0.6512633943035258    
    0.4227414176144617        0.6589029591462857    
    0.4308710602608937        0.6664787361063871    
    0.4390007029073256        0.6739829053298022    
    0.4471303455537576        0.6814078280343584    
    0.4552599882001895        0.6887460552689836    
    0.4633896308466215        0.6959903362011226    
    0.4715192734930534        0.7031336259250958    
    0.4796489161394854        0.7101690927854603    
    0.4877785587859174        0.7170901252105634    
    0.4959082014323493        0.7238903380527141    
    0.5040378440787813        0.7305635784324078    
    0.5121674867252133        0.7371039310852200    
    0.5202971293716452        0.7435057232110024    
    0.5284267720180771        0.7497635288260499    
    0.5365564146645091        0.7558721726198318    
    0.5446860573109411        0.7618267333189077    
    0.5528156999573730        0.7676225465614390    
    0.5609453426038049        0.7732552072866712    
    0.5690749852502369        0.7787205716445023    
    0.5772046278966689        0.7840147584310327    
    0.5853342705431008        0.7891341500567987    
    0.5934639131895327        0.7940753930549685    
    0.6015935558359647        0.7988353981375692    
    0.6097231984823968        0.8034113398083379    
    0.6178528411288287        0.8078006555413632    
    0.6259824837752606        0.8120010445353619    
    0.6341121264216926        0.8160104660537507    
    0.6422417690681246        0.8198271373613149    
    0.6503714117145565        0.8234495312686809    
    0.6585010543609884        0.8268763732961409    
    0.6666306970074204        0.8301066384688814    
    0.6747603396538524        0.8331395477559704    
    0.6828899823002843        0.8359745641657810    
    0.6910196249467162        0.8386113885109162    
    0.6991492675931482        0.8410499548558932    
    0.7072789102395802        0.8432904256612055    
    0.7154085528860121        0.8453331866375813    
    0.7235381955324440        0.8471788413245048    
    0.7316678381788760        0.8488282054072954    
    0.7397974808253081        0.8502823007872149    
    0.7479271234717400        0.8515423494192706    
    0.7560567661181719        0.8526097669325406    
    0.7641864087646039        0.8534861560480203    
    0.7723160514110359        0.8541732998091279    
    0.7804456940574678        0.8546731546400572    
    0.7885753367038997        0.8549878432474168    
    0.7967049793503317        0.8551196473805599    
    0.8048346219967637        0.8550710004661521    
    0.8129642646431956        0.8548444801325893    
    0.8210939072896275        0.8544428006398864    
    0.8292235499360595        0.8538688052307857    
    0.8373531925824915        0.8531254584187141    
    0.8454828352289234        0.8522158382283369    
    0.8536124778753553        0.8511431284043808    
    0.8617421205217873        0.8499106106043774    
    0.8698717631682193        0.8485216565908618    
    0.8780014058146512        0.8469797204386186    
    0.8861310484610831        0.8452883307722572    
    0.8942606911075152        0.8434510830494585    
    0.9023903337539472        0.8414716319049710    
    0.9105199764003791        0.8393536835702895    
    0.9186496190468110        0.8371009883837038    
    0.9267792616932430        0.8347173334052306    
    0.9349089043396750        0.8322065351506245    
    0.9430385469861069        0.8295724324583357    
    0.9511681896325388        0.8268188795030629    
    0.9592978322789708        0.8239497389690779    
    0.9674274749254028        0.8209688753961415    
    0.9755571175718347        0.8178801487104265    
    0.9836867602182666        0.8146874079524032    
    0.9918164028646986        0.8113944852130947    
    0.9999460455111306        0.8080051900310359    
     1.008075688157563        0.8045233031287840    
     1.016205330803994        0.8009525715309144    
     1.024334973450427        0.7972967034322237    
     1.032464616096858        0.7935593632479651    
     1.040594258743290        0.7897441670096280    
     1.048723901389722        0.7858546780329535    
     1.056853544036154        0.7818944028646544    
     1.064983186682586        0.7778667875134920    
     1.073112829329018        0.7737752139706231    
     1.081242471975450        0.7696229970234708    
     1.089372114621882        0.7654133813663732    
     1.097501757268314        0.7611495390105588    
     1.105631399914746        0.7568345669951227    
     1.113761042561178        0.7524714853998749    
     1.121890685207610        0.7480632356601614    
     1.130020327854042        0.7436126791827078    
     1.138149970500474        0.7391225962608442    
     1.146279613146906        0.7345956852867292    
     1.154409255793338        0.7300345622570777    
     1.162538898439770        0.7254417605682214    
     1.170668541086202        0.7208197310913181    
     1.178798183732634        0.7161708425337797    
     1.186927826379065        0.7114973821246130    
     1.195057469025498        0.7068015564050344    
     1.203187111671929        0.7020854922205484    
     1.211316754318361        0.6973512387326617    
     1.219446396964794        0.6926007704233280    
     1.227576039611225        0.6878359907201107    
     1.235705682257657        0.6830587352774118    
     1.243835324904089        0.6782707740011600    
     1.251964967550521        0.6734738127201308    
     1.260094610196953        0.6686694952300388    
     1.268224252843385        0.6638594052106191    
     1.276353895489817        0.6590450680492946    
     1.284483538136249        0.6542279527069970    
     1.292613180782681        0.6494094732468410    
     1.300742823429113        0.6445909906498906    
     1.308872466075545        0.6397738144577455    
     1.317002108721977        0.6349592042694558    
     1.325131751368409        0.6301483714358118    
     1.333261394014841        0.6253424804491868    
     1.341391036661273        0.6205426503589231    
     1.349520679307705        0.6157499562472705    
     1.357650321954137        0.6109654305897281    
     1.365779964600569        0.6061900645642474    
     1.373909607247001        0.6014248093465497    
     1.382039249893432        0.5966705773643382    
     1.390168892539865        0.5919282435110188    
     1.398298535186296        0.5871986463252761    
     1.406428177832728        0.5824825891361886    
     1.414557820479160        0.5777808411748960    
     1.422687463125592        0.5730941386534700    
     1.430817105772024        0.5684231858122955    
     1.438946748418456        0.5637686559365481    
     1.447076391064888        0.5591311923428638    
     1.455206033711320        0.5545114093369004    
     1.463335676357752        0.5499098931426940    
     1.471465319004184        0.5453272028046176    
     1.479594961650616        0.5407638710626302    
     1.487724604297048        0.5362204052016987    
     1.495854246943480        0.5316972878760137    
     1.503983889589912        0.5271949779087833    
     1.512113532236344        0.5227139110683219    
     1.520243174882776        0.5182545008209813    
     1.528372817529208        0.5138171390618815    
     1.536502460175640        0.5094021968235511    
     1.544632102822072        0.5050100249638189    
     1.552761745468504        0.5006409548327666    
     1.560891388114936        0.4962952989201138    
     1.569021030761367        0.4919733514829484    
     1.577150673407799        0.4876753891547633    
     1.585280316054231        0.4834016715362742    
     1.593409958700663        0.4791524417682492    
     1.601539601347095        0.4749279270875638    
     1.609669243993527        0.4707283393659016    
     1.617798886639959        0.4665538756327891    
     1.625928529286391        0.4624047185824151    
     1.634058171932823        0.4582810370653442    
     1.642187814579255        0.4541829865653998    
     1.650317457225687        0.4501107096617592    
     1.658447099872119        0.4460643364775617    
     1.666576742518551        0.4420439851142945    
     1.674706385164983        0.4380497620734229    
     1.682836027811415        0.4340817626649741    
     1.690965670457847        0.4301400714035504    
     1.699095313104279        0.4262247623926153    
     1.707224955750711        0.4223358996965197    
     1.715354598397143        0.4184735377015642    
     1.723484241043575        0.4146377214657611    
     1.731613883690007        0.4108284870578187    
     1.739743526336439        0.4070458618859541    
     1.747873168982871        0.4032898650162110    
     1.756002811629302        0.3995605074812406    
     1.764132454275734        0.3958577925794231    
     1.772262096922166        0.3921817161646843    
     1.780391739568598        0.3885322669274827    
     1.788521382215030        0.3849094266668927    
     1.796651024861462        0.3813131705543277    
     1.804780667507894        0.3777434673890359    
     1.812910310154326        0.3742002798455986    
     1.821039952800758        0.3706835647137094    
     1.829169595447190        0.3671932731304470    
     1.837299238093622        0.3637293508052601    
     1.845428880740054        0.3602917382378211    
     1.853558523386486        0.3568803709291501    
     1.861688166032918        0.3534951795859661    
     1.869817808679350        0.3501360903186018    
     1.877947451325782        0.3468030248327443    
     1.886077093972214        0.3434959006149269    
     1.894206736618646        0.3402146311122571    
     1.902336379265078        0.3369591259064376    
     1.910466021911510        0.3337292908820311    
     1.918595664557942        0.3305250283896064    
     1.926725307204374        0.3273462374035350    
     1.934854949850806        0.3241928136745917    
     1.942984592497238        0.3210646498779058    
     1.951114235143669        0.3179616357559513    
     1.959243877790101        0.3148836582568755    
     1.967373520436533        0.3118306016685461    
     1.975503163082965        0.3088023477480514    
     1.983632805729397        0.3057987758470065    
     1.991762448375829        0.3028197630328981    
     1.999892091022261        0.2998651842062846    
     2.008021733668693        0.2969349122142168    
     2.016151376315125        0.2940288179599849    
     2.024281018961557        0.2911467705091165    
     2.032410661607989        0.2882886371919339    
     2.040540304254421        0.2854542837027366    
     2.048669946900853        0.2826435741955883    
     2.056799589547285        0.2798563713769610    
     2.064929232193717        0.2770925365952800    
     2.073058874840149        0.2743519299274121    
     2.081188517486581        0.2716344102622565    
     2.089318160133013        0.2689398353815174    
     2.097447802779445        0.2662680620377048    
     2.105577445425876        0.2636189460294867    
     2.113707088072308        0.2609923422744556    
     2.121836730718741        0.2583881048794018    
     2.129966373365173        0.2558060872081573    
     2.138096016011604        0.2532461419470725    
     2.146225658658036        0.2507081211682415    
     2.154355301304468        0.2481918763905129    
     2.162484943950900        0.2456972586383319    
     2.170614586597332        0.2432241184985304    
     2.178744229243764        0.2407723061751369    
     2.186873871890196        0.2383416715421612    
     2.195003514536628        0.2359320641945336    
     2.203133157183060        0.2335433334972542    
     2.211262799829492        0.2311753286326821    
     2.219392442475924        0.2288278986461494    
     2.227522085122356        0.2265008924899465    
     2.235651727768788        0.2241941590656253    
     2.243781370415220        0.2219075472647681    
     2.251911013061652        0.2196409060082543    
     2.260040655708084        0.2173940842840486    
     2.268170298354516        0.2151669311835505    
     2.276299941000948        0.2129592959365837    
     2.284429583647380        0.2107710279450595    
     2.292559226293811        0.2086019768153200    
     2.300688868940243        0.2064519923892454    
     2.308818511586676        0.2043209247741491    
     2.316948154233108        0.2022086243714926    
     2.325077796879540        0.2001149419044622    
     2.333207439525971        0.1980397284444414    
     2.341337082172403        0.1959828354364175    
     2.349466724818835        0.1939441147233597    
     2.357596367465267        0.1919234185695916    
     2.365726010111699        0.1899205996831749    
     2.373855652758131        0.1879355112373908    
     2.381985295404563        0.1859680068912911    
     2.390114938050995        0.1840179408093550    
     2.398244580697427        0.1820851676803140    
     2.406374223343859        0.1801695427351541    
     2.414503865990291        0.1782709217643091    
     2.422633508636723        0.1763891611340564    
     2.430763151283155        0.1745241178022159    
     2.438892793929587        0.1726756493330909    
     2.447022436576019        0.1708436139116992    
     2.455152079222451        0.1690278703573393    
     2.463281721868883        0.1672282781365071    
     2.471411364515315        0.1654446973751641    
     2.479541007161747        0.1636769888703720    
     2.487670649808178        0.1619250141013678    
     2.495800292454610        0.1601886352400420    
     2.503929935101042        0.1584677151608558    
     2.512059577747475        0.1567621174502057    
     2.520189220393906        0.1550717064153075    
     2.528318863040338        0.1533963470926363    
     2.536448505686770        0.1517359052555159    
     2.544578148333202        0.1500902474216678    
     2.552707790979634        0.1484592408602287    
     2.560837433626066        0.1468427535976973    
     2.568967076272498        0.1452406544256557    
     2.577096718918930        0.1436528129046920    
     2.585226361565362        0.1420790993700201    
     2.593356004211794        0.1405193849367346    
     2.601485646858226        0.1389735415026172    
     2.609615289504658        0.1374414417546505    
     2.617744932151090        0.1359229591721871    
     2.625874574797522        0.1344179680297929    
     2.634004217443954        0.1329263434006843    
     2.642133860090386        0.1314479611595106    
     2.650263502736818        0.1299826979843303    
     2.658393145383250        0.1285304313590782    
     2.666522788029682        0.1270910395756096    
     2.674652430676113        0.1256644017352793    
     2.682782073322545        0.1242503977502978    
     2.690911715968977        0.1228489083447886    
     2.699041358615410        0.1214598150556243    
     2.707171001261842        0.1200830002330506    
     2.715300643908273        0.1187183470410537    
     2.723430286554705        0.1173657394575034    
     2.731559929201137        0.1160250622740832    
     2.739689571847569        0.1146962010960123    
     2.747819214494001        0.1133790423415689    
     2.755948857140433        0.1120734732414208    
     2.764078499786865        0.1107793818377646    
     2.772208142433297        0.1094966569832835    
     2.780337785079729        0.1082251883399302    
     2.788467427726161        0.1069648663775445    
     2.796597070372593        0.1057155823723063    
     2.804726713019025        0.1044772284050329    
     2.812856355665457        0.1032496973593277    
     2.820985998311889        0.1020328829195813    
     2.829115640958321        0.1008266795688355    
     2.837245283604753        0.9963098258651160E-01
     2.845374926251185        0.9844568804600949E-01
     2.853504568897617        0.9727069281218345E-01
     2.861634211544049        0.9610589453869831E-01
     2.869763854190480        0.9495119166526927E-01
     2.877893496836912        0.9380648341479335E-01
     2.886023139483344        0.9267166979037286E-01
     2.894152782129776        0.9154665157223937E-01
     2.902282424776208        0.9043133031457788E-01
     2.910412067422640        0.8932560834225851E-01
     2.918541710069072        0.8822938874747721E-01
     2.926671352715504        0.8714257538631330E-01
     2.934800995361936        0.8606507287520032E-01
     2.942930638008368        0.8499678658732117E-01
     2.951060280654800        0.8393762264892758E-01
     2.959189923301232        0.8288748793558512E-01
     2.967319565947664        0.8184629006835206E-01
     2.975449208594096        0.8081393740989161E-01
     2.983578851240528        0.7979033906052024E-01
     2.991708493886960        0.7877540485419782E-01
     2.999838136533392        0.7776904535446087E-01
     3.007967779179824        0.7677117185030019E-01
     3.016097421826256        0.7578169635198867E-01
     3.024227064472687        0.7480053158686037E-01
     3.032356707119120        0.7382759099504116E-01
     3.040486349765552        0.7286278872513871E-01
     3.048615992411984        0.7190603962988944E-01
     3.056745635058415        0.7095725926176669E-01
     3.064875277704847        0.7001636386855224E-01
     3.073004920351279        0.6908327038887302E-01
     3.081134562997711        0.6815789644770620E-01
     3.089264205644144        0.6724016035185278E-01
     3.097393848290575        0.6632998108538481E-01
     3.105523490937007        0.6542727830506249E-01
     3.113653133583439        0.6453197233573034E-01
     3.121782776229871        0.6364398416569050E-01
     3.129912418876303        0.6276323544205235E-01
     3.138042061522735        0.6188964846606548E-01
     3.146171704169167        0.6102314618843361E-01
     3.154301346815599        0.6016365220461360E-01
     3.162430989462031        0.5931109075009983E-01
     3.170560632108463        0.5846538669569747E-01
     3.178690274754895        0.5762646554277858E-01
     3.186819917401327        0.5679425341853585E-01
     3.194949560047759        0.5596867707122271E-01
     3.203079202694191        0.5514966386538867E-01
     3.211208845340622        0.5433714177710888E-01
     3.219338487987055        0.5353103938920436E-01
     3.227468130633487        0.5273128588646632E-01
     3.235597773279919        0.5193781105087328E-01
     3.243727415926350        0.5115054525680848E-01
     3.251857058572782        0.5036941946627770E-01
     3.259986701219214        0.4959436522412471E-01
     3.268116343865646        0.4882531465325481E-01
     3.276245986512078        0.4806220044985791E-01
     3.284375629158510        0.4730495587863608E-01
     3.292505271804942        0.4655351476803552E-01
     3.300634914451374        0.4580781150548443E-01
     3.308764557097806        0.4506778103263977E-01
     3.316894199744238        0.4433335884064092E-01
     3.325023842390670        0.4360448096537054E-01
     3.333153485037102        0.4288108398272318E-01
     3.341283127683534        0.4216310500388758E-01
     3.349412770329966        0.4145048167063830E-01
     3.357542412976398        0.4074315215063879E-01
     3.365672055622830        0.4004105513275697E-01
     3.373801698269262        0.3934412982238884E-01
     3.381931340915694        0.3865231593680320E-01
     3.390060983562126        0.3796555370049552E-01
     3.398190626208557        0.3728378384055844E-01
     3.406320268854989        0.3660694758206668E-01
     3.414449911501421        0.3593498664347347E-01
     3.422579554147854        0.3526784323203071E-01
     3.430709196794286        0.3460546003922156E-01
     3.438838839440717        0.3394778023621087E-01
     3.446968482087149        0.3329474746931411E-01
     3.455098124733581        0.3264630585547940E-01
     3.463227767380013        0.3200239997779470E-01
     3.471357410026445        0.3136297488101062E-01
     3.479487052672877        0.3072797606708373E-01
     3.487616695319309        0.3009734949073799E-01
     3.495746337965741        0.2947104155504412E-01
     3.503875980612173        0.2884899910702315E-01
     3.512005623258605        0.2823116943327085E-01
     3.520135265905037        0.2761750025560020E-01
     3.528264908551469        0.2700793972670720E-01
     3.536394551197901        0.2640243642585497E-01
     3.544524193844333        0.2580093935458105E-01
     3.552653836490765        0.2520339793242970E-01
     3.560783479137197        0.2460976199270254E-01
     3.568913121783629        0.2401998177823286E-01
     3.577042764430061        0.2343400793718176E-01
     3.585172407076493        0.2285179151885407E-01
     3.593302049722924        0.2227328396954603E-01
     3.601431692369356        0.2169843712840722E-01
     3.609561335015789        0.2112720322333075E-01
     3.617690977662221        0.2055953486686482E-01
     3.625820620308652        0.1999538505214393E-01
     3.633950262955084        0.1943470714885174E-01
     3.642079905601516        0.1887745489920277E-01
     3.650209548247948        0.1832358241394744E-01
     3.658339190894380        0.1777304416840413E-01
     3.666468833540812        0.1722579499850787E-01
     3.674598476187244        0.1668179009699498E-01
     3.682728118833676        0.1614098502949110E-01
     3.690857761480108        0.1560333625125529E-01
     3.698987404126540        0.1506880491384087E-01
     3.707117046772972        0.1453736869715997E-01
     3.715246689419404        0.1400904218967014E-01
     3.723376332065836        0.1348390013797578E-01
     3.731505974712268        0.1296209672137265E-01
     3.739635617358700        0.1244387688703114E-01
     3.747765260005132        0.1192957905099880E-01
     3.755894902651564        0.1141963046931262E-01
     3.764024545297996        0.1091453732367852E-01
     3.772154187944428        0.1041487154558880E-01
     3.780283830590859        0.9921256050783358E-02
     3.788413473237291        0.9434349625434003E-02
     3.796543115883723        0.8954832313620074E-02
     3.804672758530155        0.8483391842187571E-02
     3.812802401176588        0.8020711386405482E-02
     3.820932043823019        0.7567458816022398E-02
     3.829061686469451        0.7124277451049176E-02
     3.837191329115883        0.6691778285692543E-02
     3.845320971762315        0.6270533595842499E-02
     3.853450614408747        0.5861071821702712E-02
     3.861580257055179        0.5463873606131401E-02
     3.869709899701611        0.5079368866589135E-02
     3.877839542348043        0.4707934781089788E-02
     3.885969184994475        0.4349894574083097E-02
     3.894098827640907        0.4005516995302439E-02
     3.902228470287339        0.3675016392282920E-02
     3.910358112933771        0.3358553284788229E-02
     3.918487755580203        0.3056235356273681E-02
     3.926617398226635        0.2768118783295678E-02
     3.934747040873066        0.2494209827954365E-02
     3.942876683519499        0.2234466620389238E-02
     3.951006326165931        0.1988801056987242E-02
     3.959135968812363        0.1757080733597774E-02
     3.967265611458795        0.1539130818574171E-02
     3.975395254105226        0.1334735742136991E-02
     3.983524896751658        0.1143640525160763E-02
     3.991654539398090        0.9655514690517155E-03
     3.999784182044523        0.8001357286941078E-03
     4.007913824690954        0.6470188742946972E-03
     4.016043467337386        0.5057786092688794E-03
     4.024173109983818        0.3759304550608005E-03
     4.032302752630250        0.2568943543041948E-03
     4.040432395276683        0.1479072869151858E-03
     4.048562037923114        0.4770788779611064E-04
     4.056691680569546         0.000000000000000    
  0  2  2  0  0.000000   #orbital l, n, z, is_polarized, population
 500    0.5798090460756410E-02     2.893247139917449     # npts, delta, cutoff
     0.000000000000000        0.1575161689471111    
    0.5798090460756410E-02    0.1576472400247182    
    0.1159618092151282E-01    0.1580542963565736    
    0.1739427138226923E-01    0.1587324152177771    
    0.2319236184302564E-01    0.1596811243567268    
    0.2899045230378205E-01    0.1608997656735486    
    0.3478854276453846E-01    0.1623874945231000    
    0.4058663322529487E-01    0.1641432803472090    
    0.4638472368605128E-01    0.1661659076309889    
    0.5218281414680769E-01    0.1684539770702808    
    0.5798090460756410E-01    0.1710059069262533    
    0.6377899506832051E-01    0.1738199345591974    
    0.6957708552907692E-01    0.1768941181373428    
    0.7537517598983333E-01    0.1802263385175609    
    0.8117326645058974E-01    0.1838143012950087    
    0.8697135691134615E-01    0.1876555390187421    
    0.9276944737210256E-01    0.1917474135701741    
    0.9856753783285897E-01    0.1960871187010724    
    0.1043656282936154        0.2006716827276136    
    0.1101637187543718        0.2054979713768124    
    0.1159618092151282        0.2105626907814535    
    0.1217598996758846        0.2158623906194809    